V -t * -v 1.0a5 -a 0
A -t * -n 1 -p 0 -o 0x7fffffff -c 30 -a 1
A -t * -h 1 -m 1073741823 -s 0
n -t * -a 0 -s 0 -S UP -v circle -c black -i black
n -t * -a 1 -s 1 -S UP -v circle -c black -i black
n -t * -a 2 -s 2 -S UP -v circle -c black -i black
n -t * -a 3 -s 3 -S UP -v circle -c black -i black
l -t * -s 0 -d 1 -S UP -r 10000000 -D 0.01 -c black
l -t * -s 0 -d 2 -S UP -r 10000000 -D 0.01 -c black
l -t * -s 0 -d 3 -S UP -r 10000000 -D 0.01 -c black
l -t * -s 1 -d 2 -S UP -r 10000000 -D 0.01 -c black
l -t * -s 1 -d 3 -S UP -r 10000000 -D 0.01 -c black
l -t * -s 2 -d 3 -S UP -r 10000000 -D 0.01 -c black
+ -t 0.5 -s 0 -d 3 -p cbr -e 210 -c 0 -i 0 -a 0 -x {0.0 3.0 0 ------- null}
- -t 0.5 -s 0 -d 3 -p cbr -e 210 -c 0 -i 0 -a 0 -x {0.0 3.0 0 ------- null}
h -t 0.5 -s 0 -d 3 -p cbr -e 210 -c 0 -i 0 -a 0 -x {0.0 3.0 -1 ------- null}
+ -t 0.5 -s 0 -d 2 -p cbr -e 210 -c 0 -i 1 -a 0 -x {0.1 2.0 0 ------- null}
- -t 0.5 -s 0 -d 2 -p cbr -e 210 -c 0 -i 1 -a 0 -x {0.1 2.0 0 ------- null}
h -t 0.5 -s 0 -d 2 -p cbr -e 210 -c 0 -i 1 -a 0 -x {0.1 2.0 -1 ------- null}
+ -t 0.50375 -s 0 -d 3 -p cbr -e 210 -c 0 -i 2 -a 0 -x {0.0 3.0 1 ------- null}
- -t 0.50375 -s 0 -d 3 -p cbr -e 210 -c 0 -i 2 -a 0 -x {0.0 3.0 1 ------- null}
h -t 0.50375 -s 0 -d 3 -p cbr -e 210 -c 0 -i 2 -a 0 -x {0.0 3.0 -1 ------- null}
+ -t 0.50375 -s 0 -d 2 -p cbr -e 210 -c 0 -i 3 -a 0 -x {0.1 2.0 1 ------- null}
- -t 0.50375 -s 0 -d 2 -p cbr -e 210 -c 0 -i 3 -a 0 -x {0.1 2.0 1 ------- null}
h -t 0.50375 -s 0 -d 2 -p cbr -e 210 -c 0 -i 3 -a 0 -x {0.1 2.0 -1 ------- null}
+ -t 0.5075 -s 0 -d 3 -p cbr -e 210 -c 0 -i 4 -a 0 -x {0.0 3.0 2 ------- null}
- -t 0.5075 -s 0 -d 3 -p cbr -e 210 -c 0 -i 4 -a 0 -x {0.0 3.0 2 ------- null}
h -t 0.5075 -s 0 -d 3 -p cbr -e 210 -c 0 -i 4 -a 0 -x {0.0 3.0 -1 ------- null}
+ -t 0.5075 -s 0 -d 2 -p cbr -e 210 -c 0 -i 5 -a 0 -x {0.1 2.0 2 ------- null}
- -t 0.5075 -s 0 -d 2 -p cbr -e 210 -c 0 -i 5 -a 0 -x {0.1 2.0 2 ------- null}
h -t 0.5075 -s 0 -d 2 -p cbr -e 210 -c 0 -i 5 -a 0 -x {0.1 2.0 -1 ------- null}
r -t 0.510168 -s 0 -d 3 -p cbr -e 210 -c 0 -i 0 -a 0 -x {0.0 3.0 0 ------- null}
r -t 0.510168 -s 0 -d 2 -p cbr -e 210 -c 0 -i 1 -a 0 -x {0.1 2.0 0 ------- null}
+ -t 0.51125 -s 0 -d 3 -p cbr -e 210 -c 0 -i 6 -a 0 -x {0.0 3.0 3 ------- null}
- -t 0.51125 -s 0 -d 3 -p cbr -e 210 -c 0 -i 6 -a 0 -x {0.0 3.0 3 ------- null}
h -t 0.51125 -s 0 -d 3 -p cbr -e 210 -c 0 -i 6 -a 0 -x {0.0 3.0 -1 ------- null}
+ -t 0.51125 -s 0 -d 2 -p cbr -e 210 -c 0 -i 7 -a 0 -x {0.1 2.0 3 ------- null}
- -t 0.51125 -s 0 -d 2 -p cbr -e 210 -c 0 -i 7 -a 0 -x {0.1 2.0 3 ------- null}
h -t 0.51125 -s 0 -d 2 -p cbr -e 210 -c 0 -i 7 -a 0 -x {0.1 2.0 -1 ------- null}
r -t 0.513918 -s 0 -d 3 -p cbr -e 210 -c 0 -i 2 -a 0 -x {0.0 3.0 1 ------- null}
r -t 0.513918 -s 0 -d 2 -p cbr -e 210 -c 0 -i 3 -a 0 -x {0.1 2.0 1 ------- null}
+ -t 0.515 -s 0 -d 3 -p cbr -e 210 -c 0 -i 8 -a 0 -x {0.0 3.0 4 ------- null}
- -t 0.515 -s 0 -d 3 -p cbr -e 210 -c 0 -i 8 -a 0 -x {0.0 3.0 4 ------- null}
h -t 0.515 -s 0 -d 3 -p cbr -e 210 -c 0 -i 8 -a 0 -x {0.0 3.0 -1 ------- null}
+ -t 0.515 -s 0 -d 2 -p cbr -e 210 -c 0 -i 9 -a 0 -x {0.1 2.0 4 ------- null}
- -t 0.515 -s 0 -d 2 -p cbr -e 210 -c 0 -i 9 -a 0 -x {0.1 2.0 4 ------- null}
h -t 0.515 -s 0 -d 2 -p cbr -e 210 -c 0 -i 9 -a 0 -x {0.1 2.0 -1 ------- null}
r -t 0.517668 -s 0 -d 3 -p cbr -e 210 -c 0 -i 4 -a 0 -x {0.0 3.0 2 ------- null}
r -t 0.517668 -s 0 -d 2 -p cbr -e 210 -c 0 -i 5 -a 0 -x {0.1 2.0 2 ------- null}
+ -t 0.51875 -s 0 -d 3 -p cbr -e 210 -c 0 -i 10 -a 0 -x {0.0 3.0 5 ------- null}
- -t 0.51875 -s 0 -d 3 -p cbr -e 210 -c 0 -i 10 -a 0 -x {0.0 3.0 5 ------- null}
h -t 0.51875 -s 0 -d 3 -p cbr -e 210 -c 0 -i 10 -a 0 -x {0.0 3.0 -1 ------- null}
+ -t 0.51875 -s 0 -d 2 -p cbr -e 210 -c 0 -i 11 -a 0 -x {0.1 2.0 5 ------- null}
- -t 0.51875 -s 0 -d 2 -p cbr -e 210 -c 0 -i 11 -a 0 -x {0.1 2.0 5 ------- null}
h -t 0.51875 -s 0 -d 2 -p cbr -e 210 -c 0 -i 11 -a 0 -x {0.1 2.0 -1 ------- null}
r -t 0.521418 -s 0 -d 3 -p cbr -e 210 -c 0 -i 6 -a 0 -x {0.0 3.0 3 ------- null}
r -t 0.521418 -s 0 -d 2 -p cbr -e 210 -c 0 -i 7 -a 0 -x {0.1 2.0 3 ------- null}
+ -t 0.5225 -s 0 -d 3 -p cbr -e 210 -c 0 -i 12 -a 0 -x {0.0 3.0 6 ------- null}
- -t 0.5225 -s 0 -d 3 -p cbr -e 210 -c 0 -i 12 -a 0 -x {0.0 3.0 6 ------- null}
h -t 0.5225 -s 0 -d 3 -p cbr -e 210 -c 0 -i 12 -a 0 -x {0.0 3.0 -1 ------- null}
+ -t 0.5225 -s 0 -d 2 -p cbr -e 210 -c 0 -i 13 -a 0 -x {0.1 2.0 6 ------- null}
- -t 0.5225 -s 0 -d 2 -p cbr -e 210 -c 0 -i 13 -a 0 -x {0.1 2.0 6 ------- null}
h -t 0.5225 -s 0 -d 2 -p cbr -e 210 -c 0 -i 13 -a 0 -x {0.1 2.0 -1 ------- null}
r -t 0.525168 -s 0 -d 3 -p cbr -e 210 -c 0 -i 8 -a 0 -x {0.0 3.0 4 ------- null}
r -t 0.525168 -s 0 -d 2 -p cbr -e 210 -c 0 -i 9 -a 0 -x {0.1 2.0 4 ------- null}
+ -t 0.52625 -s 0 -d 3 -p cbr -e 210 -c 0 -i 14 -a 0 -x {0.0 3.0 7 ------- null}
- -t 0.52625 -s 0 -d 3 -p cbr -e 210 -c 0 -i 14 -a 0 -x {0.0 3.0 7 ------- null}
h -t 0.52625 -s 0 -d 3 -p cbr -e 210 -c 0 -i 14 -a 0 -x {0.0 3.0 -1 ------- null}
+ -t 0.52625 -s 0 -d 2 -p cbr -e 210 -c 0 -i 15 -a 0 -x {0.1 2.0 7 ------- null}
- -t 0.52625 -s 0 -d 2 -p cbr -e 210 -c 0 -i 15 -a 0 -x {0.1 2.0 7 ------- null}
h -t 0.52625 -s 0 -d 2 -p cbr -e 210 -c 0 -i 15 -a 0 -x {0.1 2.0 -1 ------- null}
r -t 0.528918 -s 0 -d 3 -p cbr -e 210 -c 0 -i 10 -a 0 -x {0.0 3.0 5 ------- null}
r -t 0.528918 -s 0 -d 2 -p cbr -e 210 -c 0 -i 11 -a 0 -x {0.1 2.0 5 ------- null}
+ -t 0.53 -s 0 -d 3 -p cbr -e 210 -c 0 -i 16 -a 0 -x {0.0 3.0 8 ------- null}
- -t 0.53 -s 0 -d 3 -p cbr -e 210 -c 0 -i 16 -a 0 -x {0.0 3.0 8 ------- null}
h -t 0.53 -s 0 -d 3 -p cbr -e 210 -c 0 -i 16 -a 0 -x {0.0 3.0 -1 ------- null}
+ -t 0.53 -s 0 -d 2 -p cbr -e 210 -c 0 -i 17 -a 0 -x {0.1 2.0 8 ------- null}
- -t 0.53 -s 0 -d 2 -p cbr -e 210 -c 0 -i 17 -a 0 -x {0.1 2.0 8 ------- null}
h -t 0.53 -s 0 -d 2 -p cbr -e 210 -c 0 -i 17 -a 0 -x {0.1 2.0 -1 ------- null}
r -t 0.532668 -s 0 -d 3 -p cbr -e 210 -c 0 -i 12 -a 0 -x {0.0 3.0 6 ------- null}
r -t 0.532668 -s 0 -d 2 -p cbr -e 210 -c 0 -i 13 -a 0 -x {0.1 2.0 6 ------- null}
+ -t 0.53375 -s 0 -d 3 -p cbr -e 210 -c 0 -i 18 -a 0 -x {0.0 3.0 9 ------- null}
- -t 0.53375 -s 0 -d 3 -p cbr -e 210 -c 0 -i 18 -a 0 -x {0.0 3.0 9 ------- null}
h -t 0.53375 -s 0 -d 3 -p cbr -e 210 -c 0 -i 18 -a 0 -x {0.0 3.0 -1 ------- null}
+ -t 0.53375 -s 0 -d 2 -p cbr -e 210 -c 0 -i 19 -a 0 -x {0.1 2.0 9 ------- null}
- -t 0.53375 -s 0 -d 2 -p cbr -e 210 -c 0 -i 19 -a 0 -x {0.1 2.0 9 ------- null}
h -t 0.53375 -s 0 -d 2 -p cbr -e 210 -c 0 -i 19 -a 0 -x {0.1 2.0 -1 ------- null}
r -t 0.536418 -s 0 -d 3 -p cbr -e 210 -c 0 -i 14 -a 0 -x {0.0 3.0 7 ------- null}
r -t 0.536418 -s 0 -d 2 -p cbr -e 210 -c 0 -i 15 -a 0 -x {0.1 2.0 7 ------- null}
+ -t 0.5375 -s 0 -d 3 -p cbr -e 210 -c 0 -i 20 -a 0 -x {0.0 3.0 10 ------- null}
- -t 0.5375 -s 0 -d 3 -p cbr -e 210 -c 0 -i 20 -a 0 -x {0.0 3.0 10 ------- null}
h -t 0.5375 -s 0 -d 3 -p cbr -e 210 -c 0 -i 20 -a 0 -x {0.0 3.0 -1 ------- null}
+ -t 0.5375 -s 0 -d 2 -p cbr -e 210 -c 0 -i 21 -a 0 -x {0.1 2.0 10 ------- null}
- -t 0.5375 -s 0 -d 2 -p cbr -e 210 -c 0 -i 21 -a 0 -x {0.1 2.0 10 ------- null}
h -t 0.5375 -s 0 -d 2 -p cbr -e 210 -c 0 -i 21 -a 0 -x {0.1 2.0 -1 ------- null}
r -t 0.540168 -s 0 -d 3 -p cbr -e 210 -c 0 -i 16 -a 0 -x {0.0 3.0 8 ------- null}
r -t 0.540168 -s 0 -d 2 -p cbr -e 210 -c 0 -i 17 -a 0 -x {0.1 2.0 8 ------- null}
+ -t 0.54125 -s 0 -d 3 -p cbr -e 210 -c 0 -i 22 -a 0 -x {0.0 3.0 11 ------- null}
- -t 0.54125 -s 0 -d 3 -p cbr -e 210 -c 0 -i 22 -a 0 -x {0.0 3.0 11 ------- null}
h -t 0.54125 -s 0 -d 3 -p cbr -e 210 -c 0 -i 22 -a 0 -x {0.0 3.0 -1 ------- null}
+ -t 0.54125 -s 0 -d 2 -p cbr -e 210 -c 0 -i 23 -a 0 -x {0.1 2.0 11 ------- null}
- -t 0.54125 -s 0 -d 2 -p cbr -e 210 -c 0 -i 23 -a 0 -x {0.1 2.0 11 ------- null}
h -t 0.54125 -s 0 -d 2 -p cbr -e 210 -c 0 -i 23 -a 0 -x {0.1 2.0 -1 ------- null}
r -t 0.543918 -s 0 -d 3 -p cbr -e 210 -c 0 -i 18 -a 0 -x {0.0 3.0 9 ------- null}
r -t 0.543918 -s 0 -d 2 -p cbr -e 210 -c 0 -i 19 -a 0 -x {0.1 2.0 9 ------- null}
+ -t 0.545 -s 0 -d 3 -p cbr -e 210 -c 0 -i 24 -a 0 -x {0.0 3.0 12 ------- null}
- -t 0.545 -s 0 -d 3 -p cbr -e 210 -c 0 -i 24 -a 0 -x {0.0 3.0 12 ------- null}
h -t 0.545 -s 0 -d 3 -p cbr -e 210 -c 0 -i 24 -a 0 -x {0.0 3.0 -1 ------- null}
+ -t 0.545 -s 0 -d 2 -p cbr -e 210 -c 0 -i 25 -a 0 -x {0.1 2.0 12 ------- null}
- -t 0.545 -s 0 -d 2 -p cbr -e 210 -c 0 -i 25 -a 0 -x {0.1 2.0 12 ------- null}
h -t 0.545 -s 0 -d 2 -p cbr -e 210 -c 0 -i 25 -a 0 -x {0.1 2.0 -1 ------- null}
r -t 0.547668 -s 0 -d 3 -p cbr -e 210 -c 0 -i 20 -a 0 -x {0.0 3.0 10 ------- null}
r -t 0.547668 -s 0 -d 2 -p cbr -e 210 -c 0 -i 21 -a 0 -x {0.1 2.0 10 ------- null}
+ -t 0.54875 -s 0 -d 3 -p cbr -e 210 -c 0 -i 26 -a 0 -x {0.0 3.0 13 ------- null}
- -t 0.54875 -s 0 -d 3 -p cbr -e 210 -c 0 -i 26 -a 0 -x {0.0 3.0 13 ------- null}
h -t 0.54875 -s 0 -d 3 -p cbr -e 210 -c 0 -i 26 -a 0 -x {0.0 3.0 -1 ------- null}
+ -t 0.54875 -s 0 -d 2 -p cbr -e 210 -c 0 -i 27 -a 0 -x {0.1 2.0 13 ------- null}
- -t 0.54875 -s 0 -d 2 -p cbr -e 210 -c 0 -i 27 -a 0 -x {0.1 2.0 13 ------- null}
h -t 0.54875 -s 0 -d 2 -p cbr -e 210 -c 0 -i 27 -a 0 -x {0.1 2.0 -1 ------- null}
r -t 0.551418 -s 0 -d 3 -p cbr -e 210 -c 0 -i 22 -a 0 -x {0.0 3.0 11 ------- null}
r -t 0.551418 -s 0 -d 2 -p cbr -e 210 -c 0 -i 23 -a 0 -x {0.1 2.0 11 ------- null}
+ -t 0.5525 -s 0 -d 3 -p cbr -e 210 -c 0 -i 28 -a 0 -x {0.0 3.0 14 ------- null}
- -t 0.5525 -s 0 -d 3 -p cbr -e 210 -c 0 -i 28 -a 0 -x {0.0 3.0 14 ------- null}
h -t 0.5525 -s 0 -d 3 -p cbr -e 210 -c 0 -i 28 -a 0 -x {0.0 3.0 -1 ------- null}
+ -t 0.5525 -s 0 -d 2 -p cbr -e 210 -c 0 -i 29 -a 0 -x {0.1 2.0 14 ------- null}
- -t 0.5525 -s 0 -d 2 -p cbr -e 210 -c 0 -i 29 -a 0 -x {0.1 2.0 14 ------- null}
h -t 0.5525 -s 0 -d 2 -p cbr -e 210 -c 0 -i 29 -a 0 -x {0.1 2.0 -1 ------- null}
r -t 0.555168 -s 0 -d 3 -p cbr -e 210 -c 0 -i 24 -a 0 -x {0.0 3.0 12 ------- null}
r -t 0.555168 -s 0 -d 2 -p cbr -e 210 -c 0 -i 25 -a 0 -x {0.1 2.0 12 ------- null}
+ -t 0.55625 -s 0 -d 3 -p cbr -e 210 -c 0 -i 30 -a 0 -x {0.0 3.0 15 ------- null}
- -t 0.55625 -s 0 -d 3 -p cbr -e 210 -c 0 -i 30 -a 0 -x {0.0 3.0 15 ------- null}
h -t 0.55625 -s 0 -d 3 -p cbr -e 210 -c 0 -i 30 -a 0 -x {0.0 3.0 -1 ------- null}
+ -t 0.55625 -s 0 -d 2 -p cbr -e 210 -c 0 -i 31 -a 0 -x {0.1 2.0 15 ------- null}
- -t 0.55625 -s 0 -d 2 -p cbr -e 210 -c 0 -i 31 -a 0 -x {0.1 2.0 15 ------- null}
h -t 0.55625 -s 0 -d 2 -p cbr -e 210 -c 0 -i 31 -a 0 -x {0.1 2.0 -1 ------- null}
r -t 0.558918 -s 0 -d 3 -p cbr -e 210 -c 0 -i 26 -a 0 -x {0.0 3.0 13 ------- null}
r -t 0.558918 -s 0 -d 2 -p cbr -e 210 -c 0 -i 27 -a 0 -x {0.1 2.0 13 ------- null}
+ -t 0.56 -s 0 -d 3 -p cbr -e 210 -c 0 -i 32 -a 0 -x {0.0 3.0 16 ------- null}
- -t 0.56 -s 0 -d 3 -p cbr -e 210 -c 0 -i 32 -a 0 -x {0.0 3.0 16 ------- null}
h -t 0.56 -s 0 -d 3 -p cbr -e 210 -c 0 -i 32 -a 0 -x {0.0 3.0 -1 ------- null}
+ -t 0.56 -s 0 -d 2 -p cbr -e 210 -c 0 -i 33 -a 0 -x {0.1 2.0 16 ------- null}
- -t 0.56 -s 0 -d 2 -p cbr -e 210 -c 0 -i 33 -a 0 -x {0.1 2.0 16 ------- null}
h -t 0.56 -s 0 -d 2 -p cbr -e 210 -c 0 -i 33 -a 0 -x {0.1 2.0 -1 ------- null}
r -t 0.562668 -s 0 -d 3 -p cbr -e 210 -c 0 -i 28 -a 0 -x {0.0 3.0 14 ------- null}
r -t 0.562668 -s 0 -d 2 -p cbr -e 210 -c 0 -i 29 -a 0 -x {0.1 2.0 14 ------- null}
+ -t 0.563750000000001 -s 0 -d 3 -p cbr -e 210 -c 0 -i 34 -a 0 -x {0.0 3.0 17 ------- null}
- -t 0.563750000000001 -s 0 -d 3 -p cbr -e 210 -c 0 -i 34 -a 0 -x {0.0 3.0 17 ------- null}
h -t 0.563750000000001 -s 0 -d 3 -p cbr -e 210 -c 0 -i 34 -a 0 -x {0.0 3.0 -1 ------- null}
+ -t 0.563750000000001 -s 0 -d 2 -p cbr -e 210 -c 0 -i 35 -a 0 -x {0.1 2.0 17 ------- null}
- -t 0.563750000000001 -s 0 -d 2 -p cbr -e 210 -c 0 -i 35 -a 0 -x {0.1 2.0 17 ------- null}
h -t 0.563750000000001 -s 0 -d 2 -p cbr -e 210 -c 0 -i 35 -a 0 -x {0.1 2.0 -1 ------- null}
r -t 0.566418 -s 0 -d 3 -p cbr -e 210 -c 0 -i 30 -a 0 -x {0.0 3.0 15 ------- null}
r -t 0.566418 -s 0 -d 2 -p cbr -e 210 -c 0 -i 31 -a 0 -x {0.1 2.0 15 ------- null}
+ -t 0.567500000000001 -s 0 -d 3 -p cbr -e 210 -c 0 -i 36 -a 0 -x {0.0 3.0 18 ------- null}
- -t 0.567500000000001 -s 0 -d 3 -p cbr -e 210 -c 0 -i 36 -a 0 -x {0.0 3.0 18 ------- null}
h -t 0.567500000000001 -s 0 -d 3 -p cbr -e 210 -c 0 -i 36 -a 0 -x {0.0 3.0 -1 ------- null}
+ -t 0.567500000000001 -s 0 -d 2 -p cbr -e 210 -c 0 -i 37 -a 0 -x {0.1 2.0 18 ------- null}
- -t 0.567500000000001 -s 0 -d 2 -p cbr -e 210 -c 0 -i 37 -a 0 -x {0.1 2.0 18 ------- null}
h -t 0.567500000000001 -s 0 -d 2 -p cbr -e 210 -c 0 -i 37 -a 0 -x {0.1 2.0 -1 ------- null}
r -t 0.570168 -s 0 -d 3 -p cbr -e 210 -c 0 -i 32 -a 0 -x {0.0 3.0 16 ------- null}
r -t 0.570168 -s 0 -d 2 -p cbr -e 210 -c 0 -i 33 -a 0 -x {0.1 2.0 16 ------- null}
+ -t 0.571250000000001 -s 0 -d 3 -p cbr -e 210 -c 0 -i 38 -a 0 -x {0.0 3.0 19 ------- null}
- -t 0.571250000000001 -s 0 -d 3 -p cbr -e 210 -c 0 -i 38 -a 0 -x {0.0 3.0 19 ------- null}
h -t 0.571250000000001 -s 0 -d 3 -p cbr -e 210 -c 0 -i 38 -a 0 -x {0.0 3.0 -1 ------- null}
+ -t 0.571250000000001 -s 0 -d 2 -p cbr -e 210 -c 0 -i 39 -a 0 -x {0.1 2.0 19 ------- null}
- -t 0.571250000000001 -s 0 -d 2 -p cbr -e 210 -c 0 -i 39 -a 0 -x {0.1 2.0 19 ------- null}
h -t 0.571250000000001 -s 0 -d 2 -p cbr -e 210 -c 0 -i 39 -a 0 -x {0.1 2.0 -1 ------- null}
r -t 0.573918 -s 0 -d 3 -p cbr -e 210 -c 0 -i 34 -a 0 -x {0.0 3.0 17 ------- null}
r -t 0.573918 -s 0 -d 2 -p cbr -e 210 -c 0 -i 35 -a 0 -x {0.1 2.0 17 ------- null}
+ -t 0.575000000000001 -s 0 -d 3 -p cbr -e 210 -c 0 -i 40 -a 0 -x {0.0 3.0 20 ------- null}
- -t 0.575000000000001 -s 0 -d 3 -p cbr -e 210 -c 0 -i 40 -a 0 -x {0.0 3.0 20 ------- null}
h -t 0.575000000000001 -s 0 -d 3 -p cbr -e 210 -c 0 -i 40 -a 0 -x {0.0 3.0 -1 ------- null}
+ -t 0.575000000000001 -s 0 -d 2 -p cbr -e 210 -c 0 -i 41 -a 0 -x {0.1 2.0 20 ------- null}
- -t 0.575000000000001 -s 0 -d 2 -p cbr -e 210 -c 0 -i 41 -a 0 -x {0.1 2.0 20 ------- null}
h -t 0.575000000000001 -s 0 -d 2 -p cbr -e 210 -c 0 -i 41 -a 0 -x {0.1 2.0 -1 ------- null}
r -t 0.577668000000001 -s 0 -d 3 -p cbr -e 210 -c 0 -i 36 -a 0 -x {0.0 3.0 18 ------- null}
r -t 0.577668000000001 -s 0 -d 2 -p cbr -e 210 -c 0 -i 37 -a 0 -x {0.1 2.0 18 ------- null}
+ -t 0.578750000000001 -s 0 -d 3 -p cbr -e 210 -c 0 -i 42 -a 0 -x {0.0 3.0 21 ------- null}
- -t 0.578750000000001 -s 0 -d 3 -p cbr -e 210 -c 0 -i 42 -a 0 -x {0.0 3.0 21 ------- null}
h -t 0.578750000000001 -s 0 -d 3 -p cbr -e 210 -c 0 -i 42 -a 0 -x {0.0 3.0 -1 ------- null}
+ -t 0.578750000000001 -s 0 -d 2 -p cbr -e 210 -c 0 -i 43 -a 0 -x {0.1 2.0 21 ------- null}
- -t 0.578750000000001 -s 0 -d 2 -p cbr -e 210 -c 0 -i 43 -a 0 -x {0.1 2.0 21 ------- null}
h -t 0.578750000000001 -s 0 -d 2 -p cbr -e 210 -c 0 -i 43 -a 0 -x {0.1 2.0 -1 ------- null}
r -t 0.581418000000001 -s 0 -d 3 -p cbr -e 210 -c 0 -i 38 -a 0 -x {0.0 3.0 19 ------- null}
r -t 0.581418000000001 -s 0 -d 2 -p cbr -e 210 -c 0 -i 39 -a 0 -x {0.1 2.0 19 ------- null}
+ -t 0.582500000000001 -s 0 -d 3 -p cbr -e 210 -c 0 -i 44 -a 0 -x {0.0 3.0 22 ------- null}
- -t 0.582500000000001 -s 0 -d 3 -p cbr -e 210 -c 0 -i 44 -a 0 -x {0.0 3.0 22 ------- null}
h -t 0.582500000000001 -s 0 -d 3 -p cbr -e 210 -c 0 -i 44 -a 0 -x {0.0 3.0 -1 ------- null}
+ -t 0.582500000000001 -s 0 -d 2 -p cbr -e 210 -c 0 -i 45 -a 0 -x {0.1 2.0 22 ------- null}
- -t 0.582500000000001 -s 0 -d 2 -p cbr -e 210 -c 0 -i 45 -a 0 -x {0.1 2.0 22 ------- null}
h -t 0.582500000000001 -s 0 -d 2 -p cbr -e 210 -c 0 -i 45 -a 0 -x {0.1 2.0 -1 ------- null}
r -t 0.585168000000001 -s 0 -d 3 -p cbr -e 210 -c 0 -i 40 -a 0 -x {0.0 3.0 20 ------- null}
r -t 0.585168000000001 -s 0 -d 2 -p cbr -e 210 -c 0 -i 41 -a 0 -x {0.1 2.0 20 ------- null}
+ -t 0.586250000000001 -s 0 -d 3 -p cbr -e 210 -c 0 -i 46 -a 0 -x {0.0 3.0 23 ------- null}
- -t 0.586250000000001 -s 0 -d 3 -p cbr -e 210 -c 0 -i 46 -a 0 -x {0.0 3.0 23 ------- null}
h -t 0.586250000000001 -s 0 -d 3 -p cbr -e 210 -c 0 -i 46 -a 0 -x {0.0 3.0 -1 ------- null}
+ -t 0.586250000000001 -s 0 -d 2 -p cbr -e 210 -c 0 -i 47 -a 0 -x {0.1 2.0 23 ------- null}
- -t 0.586250000000001 -s 0 -d 2 -p cbr -e 210 -c 0 -i 47 -a 0 -x {0.1 2.0 23 ------- null}
h -t 0.586250000000001 -s 0 -d 2 -p cbr -e 210 -c 0 -i 47 -a 0 -x {0.1 2.0 -1 ------- null}
r -t 0.588918000000001 -s 0 -d 3 -p cbr -e 210 -c 0 -i 42 -a 0 -x {0.0 3.0 21 ------- null}
r -t 0.588918000000001 -s 0 -d 2 -p cbr -e 210 -c 0 -i 43 -a 0 -x {0.1 2.0 21 ------- null}
+ -t 0.590000000000001 -s 0 -d 3 -p cbr -e 210 -c 0 -i 48 -a 0 -x {0.0 3.0 24 ------- null}
- -t 0.590000000000001 -s 0 -d 3 -p cbr -e 210 -c 0 -i 48 -a 0 -x {0.0 3.0 24 ------- null}
h -t 0.590000000000001 -s 0 -d 3 -p cbr -e 210 -c 0 -i 48 -a 0 -x {0.0 3.0 -1 ------- null}
+ -t 0.590000000000001 -s 0 -d 2 -p cbr -e 210 -c 0 -i 49 -a 0 -x {0.1 2.0 24 ------- null}
- -t 0.590000000000001 -s 0 -d 2 -p cbr -e 210 -c 0 -i 49 -a 0 -x {0.1 2.0 24 ------- null}
h -t 0.590000000000001 -s 0 -d 2 -p cbr -e 210 -c 0 -i 49 -a 0 -x {0.1 2.0 -1 ------- null}
r -t 0.592668000000001 -s 0 -d 3 -p cbr -e 210 -c 0 -i 44 -a 0 -x {0.0 3.0 22 ------- null}
r -t 0.592668000000001 -s 0 -d 2 -p cbr -e 210 -c 0 -i 45 -a 0 -x {0.1 2.0 22 ------- null}
+ -t 0.593750000000001 -s 0 -d 3 -p cbr -e 210 -c 0 -i 50 -a 0 -x {0.0 3.0 25 ------- null}
- -t 0.593750000000001 -s 0 -d 3 -p cbr -e 210 -c 0 -i 50 -a 0 -x {0.0 3.0 25 ------- null}
h -t 0.593750000000001 -s 0 -d 3 -p cbr -e 210 -c 0 -i 50 -a 0 -x {0.0 3.0 -1 ------- null}
+ -t 0.593750000000001 -s 0 -d 2 -p cbr -e 210 -c 0 -i 51 -a 0 -x {0.1 2.0 25 ------- null}
- -t 0.593750000000001 -s 0 -d 2 -p cbr -e 210 -c 0 -i 51 -a 0 -x {0.1 2.0 25 ------- null}
h -t 0.593750000000001 -s 0 -d 2 -p cbr -e 210 -c 0 -i 51 -a 0 -x {0.1 2.0 -1 ------- null}
r -t 0.596418000000001 -s 0 -d 3 -p cbr -e 210 -c 0 -i 46 -a 0 -x {0.0 3.0 23 ------- null}
r -t 0.596418000000001 -s 0 -d 2 -p cbr -e 210 -c 0 -i 47 -a 0 -x {0.1 2.0 23 ------- null}
+ -t 0.597500000000001 -s 0 -d 3 -p cbr -e 210 -c 0 -i 52 -a 0 -x {0.0 3.0 26 ------- null}
- -t 0.597500000000001 -s 0 -d 3 -p cbr -e 210 -c 0 -i 52 -a 0 -x {0.0 3.0 26 ------- null}
h -t 0.597500000000001 -s 0 -d 3 -p cbr -e 210 -c 0 -i 52 -a 0 -x {0.0 3.0 -1 ------- null}
+ -t 0.597500000000001 -s 0 -d 2 -p cbr -e 210 -c 0 -i 53 -a 0 -x {0.1 2.0 26 ------- null}
- -t 0.597500000000001 -s 0 -d 2 -p cbr -e 210 -c 0 -i 53 -a 0 -x {0.1 2.0 26 ------- null}
h -t 0.597500000000001 -s 0 -d 2 -p cbr -e 210 -c 0 -i 53 -a 0 -x {0.1 2.0 -1 ------- null}
r -t 0.600168000000001 -s 0 -d 3 -p cbr -e 210 -c 0 -i 48 -a 0 -x {0.0 3.0 24 ------- null}
r -t 0.600168000000001 -s 0 -d 2 -p cbr -e 210 -c 0 -i 49 -a 0 -x {0.1 2.0 24 ------- null}
+ -t 0.601250000000001 -s 0 -d 3 -p cbr -e 210 -c 0 -i 54 -a 0 -x {0.0 3.0 27 ------- null}
- -t 0.601250000000001 -s 0 -d 3 -p cbr -e 210 -c 0 -i 54 -a 0 -x {0.0 3.0 27 ------- null}
h -t 0.601250000000001 -s 0 -d 3 -p cbr -e 210 -c 0 -i 54 -a 0 -x {0.0 3.0 -1 ------- null}
+ -t 0.601250000000001 -s 0 -d 2 -p cbr -e 210 -c 0 -i 55 -a 0 -x {0.1 2.0 27 ------- null}
- -t 0.601250000000001 -s 0 -d 2 -p cbr -e 210 -c 0 -i 55 -a 0 -x {0.1 2.0 27 ------- null}
h -t 0.601250000000001 -s 0 -d 2 -p cbr -e 210 -c 0 -i 55 -a 0 -x {0.1 2.0 -1 ------- null}
r -t 0.603918000000001 -s 0 -d 3 -p cbr -e 210 -c 0 -i 50 -a 0 -x {0.0 3.0 25 ------- null}
r -t 0.603918000000001 -s 0 -d 2 -p cbr -e 210 -c 0 -i 51 -a 0 -x {0.1 2.0 25 ------- null}
+ -t 0.605000000000001 -s 0 -d 3 -p cbr -e 210 -c 0 -i 56 -a 0 -x {0.0 3.0 28 ------- null}
- -t 0.605000000000001 -s 0 -d 3 -p cbr -e 210 -c 0 -i 56 -a 0 -x {0.0 3.0 28 ------- null}
h -t 0.605000000000001 -s 0 -d 3 -p cbr -e 210 -c 0 -i 56 -a 0 -x {0.0 3.0 -1 ------- null}
+ -t 0.605000000000001 -s 0 -d 2 -p cbr -e 210 -c 0 -i 57 -a 0 -x {0.1 2.0 28 ------- null}
- -t 0.605000000000001 -s 0 -d 2 -p cbr -e 210 -c 0 -i 57 -a 0 -x {0.1 2.0 28 ------- null}
h -t 0.605000000000001 -s 0 -d 2 -p cbr -e 210 -c 0 -i 57 -a 0 -x {0.1 2.0 -1 ------- null}
r -t 0.607668000000001 -s 0 -d 3 -p cbr -e 210 -c 0 -i 52 -a 0 -x {0.0 3.0 26 ------- null}
r -t 0.607668000000001 -s 0 -d 2 -p cbr -e 210 -c 0 -i 53 -a 0 -x {0.1 2.0 26 ------- null}
+ -t 0.608750000000001 -s 0 -d 3 -p cbr -e 210 -c 0 -i 58 -a 0 -x {0.0 3.0 29 ------- null}
- -t 0.608750000000001 -s 0 -d 3 -p cbr -e 210 -c 0 -i 58 -a 0 -x {0.0 3.0 29 ------- null}
h -t 0.608750000000001 -s 0 -d 3 -p cbr -e 210 -c 0 -i 58 -a 0 -x {0.0 3.0 -1 ------- null}
+ -t 0.608750000000001 -s 0 -d 2 -p cbr -e 210 -c 0 -i 59 -a 0 -x {0.1 2.0 29 ------- null}
- -t 0.608750000000001 -s 0 -d 2 -p cbr -e 210 -c 0 -i 59 -a 0 -x {0.1 2.0 29 ------- null}
h -t 0.608750000000001 -s 0 -d 2 -p cbr -e 210 -c 0 -i 59 -a 0 -x {0.1 2.0 -1 ------- null}
r -t 0.611418000000001 -s 0 -d 3 -p cbr -e 210 -c 0 -i 54 -a 0 -x {0.0 3.0 27 ------- null}
r -t 0.611418000000001 -s 0 -d 2 -p cbr -e 210 -c 0 -i 55 -a 0 -x {0.1 2.0 27 ------- null}
+ -t 0.612500000000001 -s 0 -d 3 -p cbr -e 210 -c 0 -i 60 -a 0 -x {0.0 3.0 30 ------- null}
- -t 0.612500000000001 -s 0 -d 3 -p cbr -e 210 -c 0 -i 60 -a 0 -x {0.0 3.0 30 ------- null}
h -t 0.612500000000001 -s 0 -d 3 -p cbr -e 210 -c 0 -i 60 -a 0 -x {0.0 3.0 -1 ------- null}
+ -t 0.612500000000001 -s 0 -d 2 -p cbr -e 210 -c 0 -i 61 -a 0 -x {0.1 2.0 30 ------- null}
- -t 0.612500000000001 -s 0 -d 2 -p cbr -e 210 -c 0 -i 61 -a 0 -x {0.1 2.0 30 ------- null}
h -t 0.612500000000001 -s 0 -d 2 -p cbr -e 210 -c 0 -i 61 -a 0 -x {0.1 2.0 -1 ------- null}
r -t 0.615168000000001 -s 0 -d 3 -p cbr -e 210 -c 0 -i 56 -a 0 -x {0.0 3.0 28 ------- null}
r -t 0.615168000000001 -s 0 -d 2 -p cbr -e 210 -c 0 -i 57 -a 0 -x {0.1 2.0 28 ------- null}
+ -t 0.616250000000001 -s 0 -d 3 -p cbr -e 210 -c 0 -i 62 -a 0 -x {0.0 3.0 31 ------- null}
- -t 0.616250000000001 -s 0 -d 3 -p cbr -e 210 -c 0 -i 62 -a 0 -x {0.0 3.0 31 ------- null}
h -t 0.616250000000001 -s 0 -d 3 -p cbr -e 210 -c 0 -i 62 -a 0 -x {0.0 3.0 -1 ------- null}
+ -t 0.616250000000001 -s 0 -d 2 -p cbr -e 210 -c 0 -i 63 -a 0 -x {0.1 2.0 31 ------- null}
- -t 0.616250000000001 -s 0 -d 2 -p cbr -e 210 -c 0 -i 63 -a 0 -x {0.1 2.0 31 ------- null}
h -t 0.616250000000001 -s 0 -d 2 -p cbr -e 210 -c 0 -i 63 -a 0 -x {0.1 2.0 -1 ------- null}
r -t 0.618918000000001 -s 0 -d 3 -p cbr -e 210 -c 0 -i 58 -a 0 -x {0.0 3.0 29 ------- null}
r -t 0.618918000000001 -s 0 -d 2 -p cbr -e 210 -c 0 -i 59 -a 0 -x {0.1 2.0 29 ------- null}
+ -t 0.620000000000001 -s 0 -d 3 -p cbr -e 210 -c 0 -i 64 -a 0 -x {0.0 3.0 32 ------- null}
- -t 0.620000000000001 -s 0 -d 3 -p cbr -e 210 -c 0 -i 64 -a 0 -x {0.0 3.0 32 ------- null}
h -t 0.620000000000001 -s 0 -d 3 -p cbr -e 210 -c 0 -i 64 -a 0 -x {0.0 3.0 -1 ------- null}
+ -t 0.620000000000001 -s 0 -d 2 -p cbr -e 210 -c 0 -i 65 -a 0 -x {0.1 2.0 32 ------- null}
- -t 0.620000000000001 -s 0 -d 2 -p cbr -e 210 -c 0 -i 65 -a 0 -x {0.1 2.0 32 ------- null}
h -t 0.620000000000001 -s 0 -d 2 -p cbr -e 210 -c 0 -i 65 -a 0 -x {0.1 2.0 -1 ------- null}
r -t 0.622668000000001 -s 0 -d 3 -p cbr -e 210 -c 0 -i 60 -a 0 -x {0.0 3.0 30 ------- null}
r -t 0.622668000000001 -s 0 -d 2 -p cbr -e 210 -c 0 -i 61 -a 0 -x {0.1 2.0 30 ------- null}
+ -t 0.623750000000001 -s 0 -d 3 -p cbr -e 210 -c 0 -i 66 -a 0 -x {0.0 3.0 33 ------- null}
- -t 0.623750000000001 -s 0 -d 3 -p cbr -e 210 -c 0 -i 66 -a 0 -x {0.0 3.0 33 ------- null}
h -t 0.623750000000001 -s 0 -d 3 -p cbr -e 210 -c 0 -i 66 -a 0 -x {0.0 3.0 -1 ------- null}
+ -t 0.623750000000001 -s 0 -d 2 -p cbr -e 210 -c 0 -i 67 -a 0 -x {0.1 2.0 33 ------- null}
- -t 0.623750000000001 -s 0 -d 2 -p cbr -e 210 -c 0 -i 67 -a 0 -x {0.1 2.0 33 ------- null}
h -t 0.623750000000001 -s 0 -d 2 -p cbr -e 210 -c 0 -i 67 -a 0 -x {0.1 2.0 -1 ------- null}
r -t 0.626418000000001 -s 0 -d 3 -p cbr -e 210 -c 0 -i 62 -a 0 -x {0.0 3.0 31 ------- null}
r -t 0.626418000000001 -s 0 -d 2 -p cbr -e 210 -c 0 -i 63 -a 0 -x {0.1 2.0 31 ------- null}
+ -t 0.627500000000001 -s 0 -d 3 -p cbr -e 210 -c 0 -i 68 -a 0 -x {0.0 3.0 34 ------- null}
- -t 0.627500000000001 -s 0 -d 3 -p cbr -e 210 -c 0 -i 68 -a 0 -x {0.0 3.0 34 ------- null}
h -t 0.627500000000001 -s 0 -d 3 -p cbr -e 210 -c 0 -i 68 -a 0 -x {0.0 3.0 -1 ------- null}
+ -t 0.627500000000001 -s 0 -d 2 -p cbr -e 210 -c 0 -i 69 -a 0 -x {0.1 2.0 34 ------- null}
- -t 0.627500000000001 -s 0 -d 2 -p cbr -e 210 -c 0 -i 69 -a 0 -x {0.1 2.0 34 ------- null}
h -t 0.627500000000001 -s 0 -d 2 -p cbr -e 210 -c 0 -i 69 -a 0 -x {0.1 2.0 -1 ------- null}
r -t 0.630168000000001 -s 0 -d 3 -p cbr -e 210 -c 0 -i 64 -a 0 -x {0.0 3.0 32 ------- null}
r -t 0.630168000000001 -s 0 -d 2 -p cbr -e 210 -c 0 -i 65 -a 0 -x {0.1 2.0 32 ------- null}
+ -t 0.631250000000001 -s 0 -d 3 -p cbr -e 210 -c 0 -i 70 -a 0 -x {0.0 3.0 35 ------- null}
- -t 0.631250000000001 -s 0 -d 3 -p cbr -e 210 -c 0 -i 70 -a 0 -x {0.0 3.0 35 ------- null}
h -t 0.631250000000001 -s 0 -d 3 -p cbr -e 210 -c 0 -i 70 -a 0 -x {0.0 3.0 -1 ------- null}
+ -t 0.631250000000001 -s 0 -d 2 -p cbr -e 210 -c 0 -i 71 -a 0 -x {0.1 2.0 35 ------- null}
- -t 0.631250000000001 -s 0 -d 2 -p cbr -e 210 -c 0 -i 71 -a 0 -x {0.1 2.0 35 ------- null}
h -t 0.631250000000001 -s 0 -d 2 -p cbr -e 210 -c 0 -i 71 -a 0 -x {0.1 2.0 -1 ------- null}
r -t 0.633918000000001 -s 0 -d 3 -p cbr -e 210 -c 0 -i 66 -a 0 -x {0.0 3.0 33 ------- null}
r -t 0.633918000000001 -s 0 -d 2 -p cbr -e 210 -c 0 -i 67 -a 0 -x {0.1 2.0 33 ------- null}
+ -t 0.635000000000001 -s 0 -d 3 -p cbr -e 210 -c 0 -i 72 -a 0 -x {0.0 3.0 36 ------- null}
- -t 0.635000000000001 -s 0 -d 3 -p cbr -e 210 -c 0 -i 72 -a 0 -x {0.0 3.0 36 ------- null}
h -t 0.635000000000001 -s 0 -d 3 -p cbr -e 210 -c 0 -i 72 -a 0 -x {0.0 3.0 -1 ------- null}
+ -t 0.635000000000001 -s 0 -d 2 -p cbr -e 210 -c 0 -i 73 -a 0 -x {0.1 2.0 36 ------- null}
- -t 0.635000000000001 -s 0 -d 2 -p cbr -e 210 -c 0 -i 73 -a 0 -x {0.1 2.0 36 ------- null}
h -t 0.635000000000001 -s 0 -d 2 -p cbr -e 210 -c 0 -i 73 -a 0 -x {0.1 2.0 -1 ------- null}
r -t 0.637668000000001 -s 0 -d 3 -p cbr -e 210 -c 0 -i 68 -a 0 -x {0.0 3.0 34 ------- null}
r -t 0.637668000000001 -s 0 -d 2 -p cbr -e 210 -c 0 -i 69 -a 0 -x {0.1 2.0 34 ------- null}
+ -t 0.638750000000001 -s 0 -d 3 -p cbr -e 210 -c 0 -i 74 -a 0 -x {0.0 3.0 37 ------- null}
- -t 0.638750000000001 -s 0 -d 3 -p cbr -e 210 -c 0 -i 74 -a 0 -x {0.0 3.0 37 ------- null}
h -t 0.638750000000001 -s 0 -d 3 -p cbr -e 210 -c 0 -i 74 -a 0 -x {0.0 3.0 -1 ------- null}
+ -t 0.638750000000001 -s 0 -d 2 -p cbr -e 210 -c 0 -i 75 -a 0 -x {0.1 2.0 37 ------- null}
- -t 0.638750000000001 -s 0 -d 2 -p cbr -e 210 -c 0 -i 75 -a 0 -x {0.1 2.0 37 ------- null}
h -t 0.638750000000001 -s 0 -d 2 -p cbr -e 210 -c 0 -i 75 -a 0 -x {0.1 2.0 -1 ------- null}
r -t 0.641418000000001 -s 0 -d 3 -p cbr -e 210 -c 0 -i 70 -a 0 -x {0.0 3.0 35 ------- null}
r -t 0.641418000000001 -s 0 -d 2 -p cbr -e 210 -c 0 -i 71 -a 0 -x {0.1 2.0 35 ------- null}
+ -t 0.642500000000001 -s 0 -d 3 -p cbr -e 210 -c 0 -i 76 -a 0 -x {0.0 3.0 38 ------- null}
- -t 0.642500000000001 -s 0 -d 3 -p cbr -e 210 -c 0 -i 76 -a 0 -x {0.0 3.0 38 ------- null}
h -t 0.642500000000001 -s 0 -d 3 -p cbr -e 210 -c 0 -i 76 -a 0 -x {0.0 3.0 -1 ------- null}
+ -t 0.642500000000001 -s 0 -d 2 -p cbr -e 210 -c 0 -i 77 -a 0 -x {0.1 2.0 38 ------- null}
- -t 0.642500000000001 -s 0 -d 2 -p cbr -e 210 -c 0 -i 77 -a 0 -x {0.1 2.0 38 ------- null}
h -t 0.642500000000001 -s 0 -d 2 -p cbr -e 210 -c 0 -i 77 -a 0 -x {0.1 2.0 -1 ------- null}
r -t 0.645168000000001 -s 0 -d 3 -p cbr -e 210 -c 0 -i 72 -a 0 -x {0.0 3.0 36 ------- null}
r -t 0.645168000000001 -s 0 -d 2 -p cbr -e 210 -c 0 -i 73 -a 0 -x {0.1 2.0 36 ------- null}
+ -t 0.646250000000001 -s 0 -d 3 -p cbr -e 210 -c 0 -i 78 -a 0 -x {0.0 3.0 39 ------- null}
- -t 0.646250000000001 -s 0 -d 3 -p cbr -e 210 -c 0 -i 78 -a 0 -x {0.0 3.0 39 ------- null}
h -t 0.646250000000001 -s 0 -d 3 -p cbr -e 210 -c 0 -i 78 -a 0 -x {0.0 3.0 -1 ------- null}
+ -t 0.646250000000001 -s 0 -d 2 -p cbr -e 210 -c 0 -i 79 -a 0 -x {0.1 2.0 39 ------- null}
- -t 0.646250000000001 -s 0 -d 2 -p cbr -e 210 -c 0 -i 79 -a 0 -x {0.1 2.0 39 ------- null}
h -t 0.646250000000001 -s 0 -d 2 -p cbr -e 210 -c 0 -i 79 -a 0 -x {0.1 2.0 -1 ------- null}
r -t 0.648918000000001 -s 0 -d 3 -p cbr -e 210 -c 0 -i 74 -a 0 -x {0.0 3.0 37 ------- null}
r -t 0.648918000000001 -s 0 -d 2 -p cbr -e 210 -c 0 -i 75 -a 0 -x {0.1 2.0 37 ------- null}
+ -t 0.650000000000001 -s 0 -d 3 -p cbr -e 210 -c 0 -i 80 -a 0 -x {0.0 3.0 40 ------- null}
- -t 0.650000000000001 -s 0 -d 3 -p cbr -e 210 -c 0 -i 80 -a 0 -x {0.0 3.0 40 ------- null}
h -t 0.650000000000001 -s 0 -d 3 -p cbr -e 210 -c 0 -i 80 -a 0 -x {0.0 3.0 -1 ------- null}
+ -t 0.650000000000001 -s 0 -d 2 -p cbr -e 210 -c 0 -i 81 -a 0 -x {0.1 2.0 40 ------- null}
- -t 0.650000000000001 -s 0 -d 2 -p cbr -e 210 -c 0 -i 81 -a 0 -x {0.1 2.0 40 ------- null}
h -t 0.650000000000001 -s 0 -d 2 -p cbr -e 210 -c 0 -i 81 -a 0 -x {0.1 2.0 -1 ------- null}
r -t 0.652668000000001 -s 0 -d 3 -p cbr -e 210 -c 0 -i 76 -a 0 -x {0.0 3.0 38 ------- null}
r -t 0.652668000000001 -s 0 -d 2 -p cbr -e 210 -c 0 -i 77 -a 0 -x {0.1 2.0 38 ------- null}
+ -t 0.653750000000001 -s 0 -d 3 -p cbr -e 210 -c 0 -i 82 -a 0 -x {0.0 3.0 41 ------- null}
- -t 0.653750000000001 -s 0 -d 3 -p cbr -e 210 -c 0 -i 82 -a 0 -x {0.0 3.0 41 ------- null}
h -t 0.653750000000001 -s 0 -d 3 -p cbr -e 210 -c 0 -i 82 -a 0 -x {0.0 3.0 -1 ------- null}
+ -t 0.653750000000001 -s 0 -d 2 -p cbr -e 210 -c 0 -i 83 -a 0 -x {0.1 2.0 41 ------- null}
- -t 0.653750000000001 -s 0 -d 2 -p cbr -e 210 -c 0 -i 83 -a 0 -x {0.1 2.0 41 ------- null}
h -t 0.653750000000001 -s 0 -d 2 -p cbr -e 210 -c 0 -i 83 -a 0 -x {0.1 2.0 -1 ------- null}
r -t 0.656418000000001 -s 0 -d 3 -p cbr -e 210 -c 0 -i 78 -a 0 -x {0.0 3.0 39 ------- null}
r -t 0.656418000000001 -s 0 -d 2 -p cbr -e 210 -c 0 -i 79 -a 0 -x {0.1 2.0 39 ------- null}
+ -t 0.657500000000001 -s 0 -d 3 -p cbr -e 210 -c 0 -i 84 -a 0 -x {0.0 3.0 42 ------- null}
- -t 0.657500000000001 -s 0 -d 3 -p cbr -e 210 -c 0 -i 84 -a 0 -x {0.0 3.0 42 ------- null}
h -t 0.657500000000001 -s 0 -d 3 -p cbr -e 210 -c 0 -i 84 -a 0 -x {0.0 3.0 -1 ------- null}
+ -t 0.657500000000001 -s 0 -d 2 -p cbr -e 210 -c 0 -i 85 -a 0 -x {0.1 2.0 42 ------- null}