+ 0.5 0 1 tcp 40 ------- 0 0.0 1.0 0 0
- 0.5 0 1 tcp 40 ------- 0 0.0 1.0 0 0
r 0.51032 0 1 tcp 40 ------- 0 0.0 1.0 0 0
+ 0.51032 1 0 ack 40 ------- 0 1.0 0.0 0 1
- 0.51032 1 0 ack 40 ------- 0 1.0 0.0 0 1
r 0.52064 1 0 ack 40 ------- 0 1.0 0.0 0 1
+ 0.52064 0 1 tcp 1040 ------- 0 0.0 1.0 1 2
- 0.52064 0 1 tcp 1040 ------- 0 0.0 1.0 1 2
+ 0.52064 0 1 tcp 1040 ------- 0 0.0 1.0 2 3
- 0.52896 0 1 tcp 1040 ------- 0 0.0 1.0 2 3
r 0.53896 0 1 tcp 1040 ------- 0 0.0 1.0 1 2
+ 0.53896 1 0 ack 40 ------- 0 1.0 0.0 1 4
- 0.53896 1 0 ack 40 ------- 0 1.0 0.0 1 4
r 0.54728 0 1 tcp 1040 ------- 0 0.0 1.0 2 3
+ 0.54728 1 0 ack 40 ------- 0 1.0 0.0 2 5
- 0.54728 1 0 ack 40 ------- 0 1.0 0.0 2 5
r 0.54928 1 0 ack 40 ------- 0 1.0 0.0 1 4
+ 0.54928 0 1 tcp 1040 ------- 0 0.0 1.0 3 6
- 0.54928 0 1 tcp 1040 ------- 0 0.0 1.0 3 6
+ 0.54928 0 1 tcp 1040 ------- 0 0.0 1.0 4 7
r 0.5576 1 0 ack 40 ------- 0 1.0 0.0 2 5
+ 0.5576 0 1 tcp 1040 ------- 0 0.0 1.0 5 8
+ 0.5576 0 1 tcp 1040 ------- 0 0.0 1.0 6 9
- 0.5576 0 1 tcp 1040 ------- 0 0.0 1.0 4 7
- 0.56592 0 1 tcp 1040 ------- 0 0.0 1.0 5 8
r 0.5676 0 1 tcp 1040 ------- 0 0.0 1.0 3 6
+ 0.5676 1 0 ack 40 ------- 0 1.0 0.0 3 10
- 0.5676 1 0 ack 40 ------- 0 1.0 0.0 3 10
- 0.57424 0 1 tcp 1040 ------- 0 0.0 1.0 6 9
r 0.57592 0 1 tcp 1040 ------- 0 0.0 1.0 4 7
+ 0.57592 1 0 ack 40 ------- 0 1.0 0.0 4 11
- 0.57592 1 0 ack 40 ------- 0 1.0 0.0 4 11
r 0.57792 1 0 ack 40 ------- 0 1.0 0.0 3 10
+ 0.57792 0 1 tcp 1040 ------- 0 0.0 1.0 7 12
+ 0.57792 0 1 tcp 1040 ------- 0 0.0 1.0 8 13
- 0.58256 0 1 tcp 1040 ------- 0 0.0 1.0 7 12
r 0.58424 0 1 tcp 1040 ------- 0 0.0 1.0 5 8
+ 0.58424 1 0 ack 40 ------- 0 1.0 0.0 5 14
- 0.58424 1 0 ack 40 ------- 0 1.0 0.0 5 14
r 0.58624 1 0 ack 40 ------- 0 1.0 0.0 4 11
+ 0.58624 0 1 tcp 1040 ------- 0 0.0 1.0 9 15
+ 0.58624 0 1 tcp 1040 ------- 0 0.0 1.0 10 16
- 0.59088 0 1 tcp 1040 ------- 0 0.0 1.0 8 13
r 0.59256 0 1 tcp 1040 ------- 0 0.0 1.0 6 9
+ 0.59256 1 0 ack 40 ------- 0 1.0 0.0 6 17
- 0.59256 1 0 ack 40 ------- 0 1.0 0.0 6 17
r 0.59456 1 0 ack 40 ------- 0 1.0 0.0 5 14
+ 0.59456 0 1 tcp 1040 ------- 0 0.0 1.0 11 18
+ 0.59456 0 1 tcp 1040 ------- 0 0.0 1.0 12 19
- 0.5992 0 1 tcp 1040 ------- 0 0.0 1.0 9 15
r 0.60088 0 1 tcp 1040 ------- 0 0.0 1.0 7 12
+ 0.60088 1 0 ack 40 ------- 0 1.0 0.0 7 20
- 0.60088 1 0 ack 40 ------- 0 1.0 0.0 7 20
r 0.60288 1 0 ack 40 ------- 0 1.0 0.0 6 17
+ 0.60288 0 1 tcp 1040 ------- 0 0.0 1.0 13 21
+ 0.60288 0 1 tcp 1040 ------- 0 0.0 1.0 14 22
- 0.60752 0 1 tcp 1040 ------- 0 0.0 1.0 10 16
r 0.6092 0 1 tcp 1040 ------- 0 0.0 1.0 8 13
+ 0.6092 1 0 ack 40 ------- 0 1.0 0.0 8 23
- 0.6092 1 0 ack 40 ------- 0 1.0 0.0 8 23
r 0.6112 1 0 ack 40 ------- 0 1.0 0.0 7 20
+ 0.6112 0 1 tcp 1040 ------- 0 0.0 1.0 15 24
+ 0.6112 0 1 tcp 1040 ------- 0 0.0 1.0 16 25
- 0.61584 0 1 tcp 1040 ------- 0 0.0 1.0 11 18
r 0.61752 0 1 tcp 1040 ------- 0 0.0 1.0 9 15
+ 0.61752 1 0 ack 40 ------- 0 1.0 0.0 9 26
- 0.61752 1 0 ack 40 ------- 0 1.0 0.0 9 26
r 0.61952 1 0 ack 40 ------- 0 1.0 0.0 8 23
+ 0.61952 0 1 tcp 1040 ------- 0 0.0 1.0 17 27
+ 0.61952 0 1 tcp 1040 ------- 0 0.0 1.0 18 28
- 0.62416 0 1 tcp 1040 ------- 0 0.0 1.0 12 19
r 0.62584 0 1 tcp 1040 ------- 0 0.0 1.0 10 16
+ 0.62584 1 0 ack 40 ------- 0 1.0 0.0 10 29
- 0.62584 1 0 ack 40 ------- 0 1.0 0.0 10 29
r 0.62784 1 0 ack 40 ------- 0 1.0 0.0 9 26
+ 0.62784 0 1 tcp 1040 ------- 0 0.0 1.0 19 30
+ 0.62784 0 1 tcp 1040 ------- 0 0.0 1.0 20 31
- 0.63248 0 1 tcp 1040 ------- 0 0.0 1.0 13 21
r 0.63416 0 1 tcp 1040 ------- 0 0.0 1.0 11 18
+ 0.63416 1 0 ack 40 ------- 0 1.0 0.0 11 32
- 0.63416 1 0 ack 40 ------- 0 1.0 0.0 11 32
r 0.63616 1 0 ack 40 ------- 0 1.0 0.0 10 29
+ 0.63616 0 1 tcp 1040 ------- 0 0.0 1.0 21 33
+ 0.63616 0 1 tcp 1040 ------- 0 0.0 1.0 22 34
- 0.6408 0 1 tcp 1040 ------- 0 0.0 1.0 14 22
r 0.64248 0 1 tcp 1040 ------- 0 0.0 1.0 12 19
+ 0.64248 1 0 ack 40 ------- 0 1.0 0.0 12 35
- 0.64248 1 0 ack 40 ------- 0 1.0 0.0 12 35
r 0.64448 1 0 ack 40 ------- 0 1.0 0.0 11 32
+ 0.64448 0 1 tcp 1040 ------- 0 0.0 1.0 23 36
+ 0.64448 0 1 tcp 1040 ------- 0 0.0 1.0 24 37
- 0.64912 0 1 tcp 1040 ------- 0 0.0 1.0 15 24
r 0.6508 0 1 tcp 1040 ------- 0 0.0 1.0 13 21
+ 0.6508 1 0 ack 40 ------- 0 1.0 0.0 13 38
- 0.6508 1 0 ack 40 ------- 0 1.0 0.0 13 38
r 0.6528 1 0 ack 40 ------- 0 1.0 0.0 12 35
+ 0.6528 0 1 tcp 1040 ------- 0 0.0 1.0 25 39
+ 0.6528 0 1 tcp 1040 ------- 0 0.0 1.0 26 40
- 0.65744 0 1 tcp 1040 ------- 0 0.0 1.0 16 25
r 0.65912 0 1 tcp 1040 ------- 0 0.0 1.0 14 22
+ 0.65912 1 0 ack 40 ------- 0 1.0 0.0 14 41
- 0.65912 1 0 ack 40 ------- 0 1.0 0.0 14 41
r 0.66112 1 0 ack 40 ------- 0 1.0 0.0 13 38
+ 0.66112 0 1 tcp 1040 ------- 0 0.0 1.0 27 42
+ 0.66112 0 1 tcp 1040 ------- 0 0.0 1.0 28 43
- 0.66576 0 1 tcp 1040 ------- 0 0.0 1.0 17 27
r 0.66744 0 1 tcp 1040 ------- 0 0.0 1.0 15 24
+ 0.66744 1 0 ack 40 ------- 0 1.0 0.0 15 44
- 0.66744 1 0 ack 40 ------- 0 1.0 0.0 15 44
r 0.66944 1 0 ack 40 ------- 0 1.0 0.0 14 41
+ 0.66944 0 1 tcp 1040 ------- 0 0.0 1.0 29 45
+ 0.66944 0 1 tcp 1040 ------- 0 0.0 1.0 30 46
- 0.67408 0 1 tcp 1040 ------- 0 0.0 1.0 18 28
r 0.67576 0 1 tcp 1040 ------- 0 0.0 1.0 16 25
+ 0.67576 1 0 ack 40 ------- 0 1.0 0.0 16 47
- 0.67576 1 0 ack 40 ------- 0 1.0 0.0 16 47
r 0.67776 1 0 ack 40 ------- 0 1.0 0.0 15 44
+ 0.67776 0 1 tcp 1040 ------- 0 0.0 1.0 31 48
+ 0.67776 0 1 tcp 1040 ------- 0 0.0 1.0 32 49
- 0.6824 0 1 tcp 1040 ------- 0 0.0 1.0 19 30
r 0.68408 0 1 tcp 1040 ------- 0 0.0 1.0 17 27
+ 0.68408 1 0 ack 40 ------- 0 1.0 0.0 17 50
- 0.68408 1 0 ack 40 ------- 0 1.0 0.0 17 50
r 0.68608 1 0 ack 40 ------- 0 1.0 0.0 16 47
+ 0.68608 0 1 tcp 1040 ------- 0 0.0 1.0 33 51
+ 0.68608 0 1 tcp 1040 ------- 0 0.0 1.0 34 52
- 0.69072 0 1 tcp 1040 ------- 0 0.0 1.0 20 31
r 0.6924 0 1 tcp 1040 ------- 0 0.0 1.0 18 28
+ 0.6924 1 0 ack 40 ------- 0 1.0 0.0 18 53
- 0.6924 1 0 ack 40 ------- 0 1.0 0.0 18 53
r 0.6944 1 0 ack 40 ------- 0 1.0 0.0 17 50
+ 0.6944 0 1 tcp 1040 ------- 0 0.0 1.0 35 54
+ 0.6944 0 1 tcp 1040 ------- 0 0.0 1.0 36 55
- 0.69904 0 1 tcp 1040 ------- 0 0.0 1.0 21 33
r 0.70072 0 1 tcp 1040 ------- 0 0.0 1.0 19 30
+ 0.70072 1 0 ack 40 ------- 0 1.0 0.0 19 56
- 0.70072 1 0 ack 40 ------- 0 1.0 0.0 19 56
r 0.70272 1 0 ack 40 ------- 0 1.0 0.0 18 53
+ 0.70272 0 1 tcp 1040 ------- 0 0.0 1.0 37 57
+ 0.70272 0 1 tcp 1040 ------- 0 0.0 1.0 38 58
- 0.70736 0 1 tcp 1040 ------- 0 0.0 1.0 22 34
r 0.70904 0 1 tcp 1040 ------- 0 0.0 1.0 20 31
+ 0.70904 1 0 ack 40 ------- 0 1.0 0.0 20 59
- 0.70904 1 0 ack 40 ------- 0 1.0 0.0 20 59
r 0.71104 1 0 ack 40 ------- 0 1.0 0.0 19 56
+ 0.71104 0 1 tcp 1040 ------- 0 0.0 1.0 39 60
- 0.71568 0 1 tcp 1040 ------- 0 0.0 1.0 23 36
r 0.71736 0 1 tcp 1040 ------- 0 0.0 1.0 21 33
+ 0.71736 1 0 ack 40 ------- 0 1.0 0.0 21 61
- 0.71736 1 0 ack 40 ------- 0 1.0 0.0 21 61
r 0.71936 1 0 ack 40 ------- 0 1.0 0.0 20 59
+ 0.71936 0 1 tcp 1040 ------- 0 0.0 1.0 40 62
- 0.724 0 1 tcp 1040 ------- 0 0.0 1.0 24 37
r 0.72568 0 1 tcp 1040 ------- 0 0.0 1.0 22 34
+ 0.72568 1 0 ack 40 ------- 0 1.0 0.0 22 63
- 0.72568 1 0 ack 40 ------- 0 1.0 0.0 22 63
r 0.72768 1 0 ack 40 ------- 0 1.0 0.0 21 61
+ 0.72768 0 1 tcp 1040 ------- 0 0.0 1.0 41 64
- 0.73232 0 1 tcp 1040 ------- 0 0.0 1.0 25 39
r 0.734 0 1 tcp 1040 ------- 0 0.0 1.0 23 36
+ 0.734 1 0 ack 40 ------- 0 1.0 0.0 23 65
- 0.734 1 0 ack 40 ------- 0 1.0 0.0 23 65
r 0.736 1 0 ack 40 ------- 0 1.0 0.0 22 63
+ 0.736 0 1 tcp 1040 ------- 0 0.0 1.0 42 66
- 0.74064 0 1 tcp 1040 ------- 0 0.0 1.0 26 40
r 0.74232 0 1 tcp 1040 ------- 0 0.0 1.0 24 37
+ 0.74232 1 0 ack 40 ------- 0 1.0 0.0 24 67
- 0.74232 1 0 ack 40 ------- 0 1.0 0.0 24 67
r 0.74432 1 0 ack 40 ------- 0 1.0 0.0 23 65
+ 0.74432 0 1 tcp 1040 ------- 0 0.0 1.0 43 68
- 0.74896 0 1 tcp 1040 ------- 0 0.0 1.0 27 42
r 0.75064 0 1 tcp 1040 ------- 0 0.0 1.0 25 39
+ 0.75064 1 0 ack 40 ------- 0 1.0 0.0 25 69
- 0.75064 1 0 ack 40 ------- 0 1.0 0.0 25 69
r 0.75264 1 0 ack 40 ------- 0 1.0 0.0 24 67
+ 0.75264 0 1 tcp 1040 ------- 0 0.0 1.0 44 70
- 0.75728 0 1 tcp 1040 ------- 0 0.0 1.0 28 43
r 0.75896 0 1 tcp 1040 ------- 0 0.0 1.0 26 40
+ 0.75896 1 0 ack 40 ------- 0 1.0 0.0 26 71
- 0.75896 1 0 ack 40 ------- 0 1.0 0.0 26 71
r 0.76096 1 0 ack 40 ------- 0 1.0 0.0 25 69
+ 0.76096 0 1 tcp 1040 ------- 0 0.0 1.0 45 72
- 0.7656 0 1 tcp 1040 ------- 0 0.0 1.0 29 45
r 0.76728 0 1 tcp 1040 ------- 0 0.0 1.0 27 42
+ 0.76728 1 0 ack 40 ------- 0 1.0 0.0 27 73
- 0.76728 1 0 ack 40 ------- 0 1.0 0.0 27 73
r 0.76928 1 0 ack 40 ------- 0 1.0 0.0 26 71
+ 0.76928 0 1 tcp 1040 ------- 0 0.0 1.0 46 74
- 0.77392 0 1 tcp 1040 ------- 0 0.0 1.0 30 46
r 0.7756 0 1 tcp 1040 ------- 0 0.0 1.0 28 43
+ 0.7756 1 0 ack 40 ------- 0 1.0 0.0 28 75
- 0.7756 1 0 ack 40 ------- 0 1.0 0.0 28 75
r 0.7776 1 0 ack 40 ------- 0 1.0 0.0 27 73
+ 0.7776 0 1 tcp 1040 ------- 0 0.0 1.0 47 76
- 0.78224 0 1 tcp 1040 ------- 0 0.0 1.0 31 48
r 0.78392 0 1 tcp 1040 ------- 0 0.0 1.0 29 45
+ 0.78392 1 0 ack 40 ------- 0 1.0 0.0 29 77
- 0.78392 1 0 ack 40 ------- 0 1.0 0.0 29 77
r 0.78592 1 0 ack 40 ------- 0 1.0 0.0 28 75
+ 0.78592 0 1 tcp 1040 ------- 0 0.0 1.0 48 78
- 0.79056 0 1 tcp 1040 ------- 0 0.0 1.0 32 49
r 0.79224 0 1 tcp 1040 ------- 0 0.0 1.0 30 46
+ 0.79224 1 0 ack 40 ------- 0 1.0 0.0 30 79
- 0.79224 1 0 ack 40 ------- 0 1.0 0.0 30 79
r 0.79424 1 0 ack 40 ------- 0 1.0 0.0 29 77
+ 0.79424 0 1 tcp 1040 ------- 0 0.0 1.0 49 80
- 0.79888 0 1 tcp 1040 ------- 0 0.0 1.0 33 51
r 0.80056 0 1 tcp 1040 ------- 0 0.0 1.0 31 48
+ 0.80056 1 0 ack 40 ------- 0 1.0 0.0 31 81
- 0.80056 1 0 ack 40 ------- 0 1.0 0.0 31 81
r 0.80256 1 0 ack 40 ------- 0 1.0 0.0 30 79
+ 0.80256 0 1 tcp 1040 ------- 0 0.0 1.0 50 82
- 0.8072 0 1 tcp 1040 ------- 0 0.0 1.0 34 52
r 0.80888 0 1 tcp 1040 ------- 0 0.0 1.0 32 49
+ 0.80888 1 0 ack 40 ------- 0 1.0 0.0 32 83
- 0.80888 1 0 ack 40 ------- 0 1.0 0.0 32 83
r 0.81088 1 0 ack 40 ------- 0 1.0 0.0 31 81
+ 0.81088 0 1 tcp 1040 ------- 0 0.0 1.0 51 84
- 0.81552 0 1 tcp 1040 ------- 0 0.0 1.0 35 54
r 0.8172 0 1 tcp 1040 ------- 0 0.0 1.0 33 51
+ 0.8172 1 0 ack 40 ------- 0 1.0 0.0 33 85
- 0.8172 1 0 ack 40 ------- 0 1.0 0.0 33 85
r 0.8192 1 0 ack 40 ------- 0 1.0 0.0 32 83
+ 0.8192 0 1 tcp 1040 ------- 0 0.0 1.0 52 86
- 0.82384 0 1 tcp 1040 ------- 0 0.0 1.0 36 55
r 0.82552 0 1 tcp 1040 ------- 0 0.0 1.0 34 52
+ 0.82552 1 0 ack 40 ------- 0 1.0 0.0 34 87
- 0.82552 1 0 ack 40 ------- 0 1.0 0.0 34 87
r 0.82752 1 0 ack 40 ------- 0 1.0 0.0 33 85
+ 0.82752 0 1 tcp 1040 ------- 0 0.0 1.0 53 88
- 0.83216 0 1 tcp 1040 ------- 0 0.0 1.0 37 57
r 0.83384 0 1 tcp 1040 ------- 0 0.0 1.0 35 54
+ 0.83384 1 0 ack 40 ------- 0 1.0 0.0 35 89
- 0.83384 1 0 ack 40 ------- 0 1.0 0.0 35 89
r 0.83584 1 0 ack 40 ------- 0 1.0 0.0 34 87
+ 0.83584 0 1 tcp 1040 ------- 0 0.0 1.0 54 90
- 0.84048 0 1 tcp 1040 ------- 0 0.0 1.0 38 58
r 0.84216 0 1 tcp 1040 ------- 0 0.0 1.0 36 55
+ 0.84216 1 0 ack 40 ------- 0 1.0 0.0 36 91
- 0.84216 1 0 ack 40 ------- 0 1.0 0.0 36 91
r 0.84416 1 0 ack 40 ------- 0 1.0 0.0 35 89
+ 0.84416 0 1 tcp 1040 ------- 0 0.0 1.0 55 92
- 0.8488 0 1 tcp 1040 ------- 0 0.0 1.0 39 60
r 0.85048 0 1 tcp 1040 ------- 0 0.0 1.0 37 57
+ 0.85048 1 0 ack 40 ------- 0 1.0 0.0 37 93
- 0.85048 1 0 ack 40 ------- 0 1.0 0.0 37 93
r 0.85248 1 0 ack 40 ------- 0 1.0 0.0 36 91
+ 0.85248 0 1 tcp 1040 ------- 0 0.0 1.0 56 94
- 0.85712 0 1 tcp 1040 ------- 0 0.0 1.0 40 62
r 0.8588 0 1 tcp 1040 ------- 0 0.0 1.0 38 58
+ 0.8588 1 0 ack 40 ------- 0 1.0 0.0 38 95
- 0.8588 1 0 ack 40 ------- 0 1.0 0.0 38 95
r 0.8608 1 0 ack 40 ------- 0 1.0 0.0 37 93
+ 0.8608 0 1 tcp 1040 ------- 0 0.0 1.0 57 96
- 0.86544 0 1 tcp 1040 ------- 0 0.0 1.0 41 64
r 0.86712 0 1 tcp 1040 ------- 0 0.0 1.0 39 60
+ 0.86712 1 0 ack 40 ------- 0 1.0 0.0 39 97
- 0.86712 1 0 ack 40 ------- 0 1.0 0.0 39 97
r 0.86912 1 0 ack 40 ------- 0 1.0 0.0 38 95
+ 0.86912 0 1 tcp 1040 ------- 0 0.0 1.0 58 98
- 0.87376 0 1 tcp 1040 ------- 0 0.0 1.0 42 66
r 0.87544 0 1 tcp 1040 ------- 0 0.0 1.0 40 62
+ 0.87544 1 0 ack 40 ------- 0 1.0 0.0 40 99
- 0.87544 1 0 ack 40 ------- 0 1.0 0.0 40 99
r 0.87744 1 0 ack 40 ------- 0 1.0 0.0 39 97
+ 0.87744 0 1 tcp 1040 ------- 0 0.0 1.0 59 100
- 0.88208 0 1 tcp 1040 ------- 0 0.0 1.0 43 68
r 0.88376 0 1 tcp 1040 ------- 0 0.0 1.0 41 64
+ 0.88376 1 0 ack 40 ------- 0 1.0 0.0 41 101
- 0.88376 1 0 ack 40 ------- 0 1.0 0.0 41 101
r 0.88576 1 0 ack 40 ------- 0 1.0 0.0 40 99
+ 0.88576 0 1 tcp 1040 ------- 0 0.0 1.0 60 102
- 0.8904 0 1 tcp 1040 ------- 0 0.0 1.0 44 70
r 0.89208 0 1 tcp 1040 ------- 0 0.0 1.0 42 66
+ 0.89208 1 0 ack 40 ------- 0 1.0 0.0 42 103
- 0.89208 1 0 ack 40 ------- 0 1.0 0.0 42 103
r 0.89408 1 0 ack 40 ------- 0 1.0 0.0 41 101
+ 0.89408 0 1 tcp 1040 ------- 0 0.0 1.0 61 104
- 0.89872 0 1 tcp 1040 ------- 0 0.0 1.0 45 72
r 0.9004 0 1 tcp 1040 ------- 0 0.0 1.0 43 68
+ 0.9004 1 0 ack 40 ------- 0 1.0 0.0 43 105
- 0.9004 1 0 ack 40 ------- 0 1.0 0.0 43 105
r 0.9024 1 0 ack 40 ------- 0 1.0 0.0 42 103
+ 0.9024 0 1 tcp 1040 ------- 0 0.0 1.0 62 106
- 0.90704 0 1 tcp 1040 ------- 0 0.0 1.0 46 74
r 0.90872 0 1 tcp 1040 ------- 0 0.0 1.0 44 70
+ 0.90872 1 0 ack 40 ------- 0 1.0 0.0 44 107
- 0.90872 1 0 ack 40 ------- 0 1.0 0.0 44 107
r 0.91072 1 0 ack 40 ------- 0 1.0 0.0 43 105
+ 0.91072 0 1 tcp 1040 ------- 0 0.0 1.0 63 108
- 0.91536 0 1 tcp 1040 ------- 0 0.0 1.0 47 76
r 0.91704 0 1 tcp 1040 ------- 0 0.0 1.0 45 72
+ 0.91704 1 0 ack 40 ------- 0 1.0 0.0 45 109
- 0.91704 1 0 ack 40 ------- 0 1.0 0.0 45 109
r 0.91904 1 0 ack 40 ------- 0 1.0 0.0 44 107
+ 0.91904 0 1 tcp 1040 ------- 0 0.0 1.0 64 110
- 0.92368 0 1 tcp 1040 ------- 0 0.0 1.0 48 78
r 0.92536 0 1 tcp 1040 ------- 0 0.0 1.0 46 74
+ 0.92536 1 0 ack 40 ------- 0 1.0 0.0 46 111
- 0.92536 1 0 ack 40 ------- 0 1.0 0.0 46 111
r 0.92736 1 0 ack 40 ------- 0 1.0 0.0 45 109
+ 0.92736 0 1 tcp 1040 ------- 0 0.0 1.0 65 112
- 0.932 0 1 tcp 1040 ------- 0 0.0 1.0 49 80
r 0.93368 0 1 tcp 1040 ------- 0 0.0 1.0 47 76
+ 0.93368 1 0 ack 40 ------- 0 1.0 0.0 47 113
- 0.93368 1 0 ack 40 ------- 0 1.0 0.0 47 113
r 0.93568 1 0 ack 40 ------- 0 1.0 0.0 46 111
+ 0.93568 0 1 tcp 1040 ------- 0 0.0 1.0 66 114
- 0.94032 0 1 tcp 1040 ------- 0 0.0 1.0 50 82
r 0.942 0 1 tcp 1040 ------- 0 0.0 1.0 48 78
+ 0.942 1 0 ack 40 ------- 0 1.0 0.0 48 115
- 0.942 1 0 ack 40 ------- 0 1.0 0.0 48 115
r 0.944 1 0 ack 40 ------- 0 1.0 0.0 47 113
+ 0.944 0 1 tcp 1040 ------- 0 0.0 1.0 67 116
- 0.94864 0 1 tcp 1040 ------- 0 0.0 1.0 51 84
r 0.95032 0 1 tcp 1040 ------- 0 0.0 1.0 49 80
+ 0.95032 1 0 ack 40 ------- 0 1.0 0.0 49 117
- 0.95032 1 0 ack 40 ------- 0 1.0 0.0 49 117
r 0.95232 1 0 ack 40 ------- 0 1.0 0.0 48 115
+ 0.95232 0 1 tcp 1040 ------- 0 0.0 1.0 68 118
- 0.95696 0 1 tcp 1040 ------- 0 0.0 1.0 52 86
r 0.95864 0 1 tcp 1040 ------- 0 0.0 1.0 50 82
+ 0.95864 1 0 ack 40 ------- 0 1.0 0.0 50 119
- 0.95864 1 0 ack 40 ------- 0 1.0 0.0 50 119
r 0.96064 1 0 ack 40 ------- 0 1.0 0.0 49 117
+ 0.96064 0 1 tcp 1040 ------- 0 0.0 1.0 69 120
- 0.96528 0 1 tcp 1040 ------- 0 0.0 1.0 53 88
r 0.96696 0 1 tcp 1040 ------- 0 0.0 1.0 51 84
+ 0.96696 1 0 ack 40 ------- 0 1.0 0.0 51 121
- 0.96696 1 0 ack 40 ------- 0 1.0 0.0 51 121
r 0.96896 1 0 ack 40 ------- 0 1.0 0.0 50 119
+ 0.96896 0 1 tcp 1040 ------- 0 0.0 1.0 70 122
- 0.9736 0 1 tcp 1040 ------- 0 0.0 1.0 54 90
r 0.97528 0 1 tcp 1040 ------- 0 0.0 1.0 52 86
+ 0.97528 1 0 ack 40 ------- 0 1.0 0.0 52 123
- 0.97528 1 0 ack 40 ------- 0 1.0 0.0 52 123
r 0.97728 1 0 ack 40 ------- 0 1.0 0.0 51 121
+ 0.97728 0 1 tcp 1040 ------- 0 0.0 1.0 71 124
- 0.98192 0 1 tcp 1040 ------- 0 0.0 1.0 55 92
r 0.9836 0 1 tcp 1040 ------- 0 0.0 1.0 53 88
+ 0.9836 1 0 ack 40 ------- 0 1.0 0.0 53 125
- 0.9836 1 0 ack 40 ------- 0 1.0 0.0 53 125
r 0.9856 1 0 ack 40 ------- 0 1.0 0.0 52 123
+ 0.9856 0 1 tcp 1040 ------- 0 0.0 1.0 72 126
- 0.99024 0 1 tcp 1040 ------- 0 0.0 1.0 56 94
r 0.99192 0 1 tcp 1040 ------- 0 0.0 1.0 54 90
+ 0.99192 1 0 ack 40 ------- 0 1.0 0.0 54 127
- 0.99192 1 0 ack 40 ------- 0 1.0 0.0 54 127
r 0.99392 1 0 ack 40 ------- 0 1.0 0.0 53 125
+ 0.99392 0 1 tcp 1040 ------- 0 0.0 1.0 73 128
- 0.99856 0 1 tcp 1040 ------- 0 0.0 1.0 57 96
r 1.00024 0 1 tcp 1040 ------- 0 0.0 1.0 55 92
+ 1.00024 1 0 ack 40 ------- 0 1.0 0.0 55 129
- 1.00024 1 0 ack 40 ------- 0 1.0 0.0 55 129
r 1.00224 1 0 ack 40 ------- 0 1.0 0.0 54 127
+ 1.00224 0 1 tcp 1040 ------- 0 0.0 1.0 74 130
- 1.00688 0 1 tcp 1040 ------- 0 0.0 1.0 58 98
r 1.00856 0 1 tcp 1040 ------- 0 0.0 1.0 56 94
+ 1.00856 1 0 ack 40 ------- 0 1.0 0.0 56 131
- 1.00856 1 0 ack 40 ------- 0 1.0 0.0 56 131
r 1.01056 1 0 ack 40 ------- 0 1.0 0.0 55 129
+ 1.01056 0 1 tcp 1040 ------- 0 0.0 1.0 75 132
- 1.0152 0 1 tcp 1040 ------- 0 0.0 1.0 59 100
r 1.01688 0 1 tcp 1040 ------- 0 0.0 1.0 57 96
+ 1.01688 1 0 ack 40 ------- 0 1.0 0.0 57 133
- 1.01688 1 0 ack 40 ------- 0 1.0 0.0 57 133
r 1.01888 1 0 ack 40 ------- 0 1.0 0.0 56 131
+ 1.01888 0 1 tcp 1040 ------- 0 0.0 1.0 76 134
- 1.02352 0 1 tcp 1040 ------- 0 0.0 1.0 60 102
r 1.0252 0 1 tcp 1040 ------- 0 0.0 1.0 58 98
+ 1.0252 1 0 ack 40 ------- 0 1.0 0.0 58 135
- 1.0252 1 0 ack 40 ------- 0 1.0 0.0 58 135
r 1.0272 1 0 ack 40 ------- 0 1.0 0.0 57 133
+ 1.0272 0 1 tcp 1040 ------- 0 0.0 1.0 77 136
- 1.03184 0 1 tcp 1040 ------- 0 0.0 1.0 61 104
r 1.03352 0 1 tcp 1040 ------- 0 0.0 1.0 59 100
+ 1.03352 1 0 ack 40 ------- 0 1.0 0.0 59 137
- 1.03352 1 0 ack 40 ------- 0 1.0 0.0 59 137
r 1.03552 1 0 ack 40 ------- 0 1.0 0.0 58 135
+ 1.03552 0 1 tcp 1040 ------- 0 0.0 1.0 78 138
- 1.04016 0 1 tcp 1040 ------- 0 0.0 1.0 62 106
r 1.04184 0 1 tcp 1040 ------- 0 0.0 1.0 60 102
+ 1.04184 1 0 ack 40 ------- 0 1.0 0.0 60 139
- 1.04184 1 0 ack 40 ------- 0 1.0 0.0 60 139
r 1.04384 1 0 ack 40 ------- 0 1.0 0.0 59 137
+ 1.04384 0 1 tcp 1040 ------- 0 0.0 1.0 79 140
- 1.04848 0 1 tcp 1040 ------- 0 0.0 1.0 63 108
r 1.05016 0 1 tcp 1040 ------- 0 0.0 1.0 61 104
+ 1.05016 1 0 ack 40 ------- 0 1.0 0.0 61 141
- 1.05016 1 0 ack 40 ------- 0 1.0 0.0 61 141
r 1.05216 1 0 ack 40 ------- 0 1.0 0.0 60 139
+ 1.05216 0 1 tcp 1040 ------- 0 0.0 1.0 80 142
- 1.0568 0 1 tcp 1040 ------- 0 0.0 1.0 64 110
r 1.05848 0 1 tcp 1040 ------- 0 0.0 1.0 62 106
+ 1.05848 1 0 ack 40 ------- 0 1.0 0.0 62 143
- 1.05848 1 0 ack 40 ------- 0 1.0 0.0 62 143
r 1.06048 1 0 ack 40 ------- 0 1.0 0.0 61 141
+ 1.06048 0 1 tcp 1040 ------- 0 0.0 1.0 81 144
- 1.06512 0 1 tcp 1040 ------- 0 0.0 1.0 65 112
r 1.0668 0 1 tcp 1040 ------- 0 0.0 1.0 63 108
+ 1.0668 1 0 ack 40 ------- 0 1.0 0.0 63 145
- 1.0668 1 0 ack 40 ------- 0 1.0 0.0 63 145
r 1.0688 1 0 ack 40 ------- 0 1.0 0.0 62 143
+ 1.0688 0 1 tcp 1040 ------- 0 0.0 1.0 82 146
- 1.07344 0 1 tcp 1040 ------- 0 0.0 1.0 66 114
r 1.07512 0 1 tcp 1040 ------- 0 0.0 1.0 64 110
+ 1.07512 1 0 ack 40 ------- 0 1.0 0.0 64 147
- 1.07512 1 0 ack 40 ------- 0 1.0 0.0 64 147
r 1.07712 1 0 ack 40 ------- 0 1.0 0.0 63 145
+ 1.07712 0 1 tcp 1040 ------- 0 0.0 1.0 83 148
- 1.08176 0 1 tcp 1040 ------- 0 0.0 1.0 67 116
r 1.08344 0 1 tcp 1040 ------- 0 0.0 1.0 65 112
+ 1.08344 1 0 ack 40 ------- 0 1.0 0.0 65 149
- 1.08344 1 0 ack 40 ------- 0 1.0 0.0 65 149
r 1.08544 1 0 ack 40 ------- 0 1.0 0.0 64 147
+ 1.08544 0 1 tcp 1040 ------- 0 0.0 1.0 84 150
- 1.09008 0 1 tcp 1040 ------- 0 0.0 1.0 68 118
r 1.09176 0 1 tcp 1040 ------- 0 0.0 1.0 66 114
+ 1.09176 1 0 ack 40 ------- 0 1.0 0.0 66 151
- 1.09176 1 0 ack 40 ------- 0 1.0 0.0 66 151
r 1.09376 1 0 ack 40 ------- 0 1.0 0.0 65 149
+ 1.09376 0 1 tcp 1040 ------- 0 0.0 1.0 85 152
- 1.0984 0 1 tcp 1040 ------- 0 0.0 1.0 69 120
r 1.10008 0 1 tcp 1040 ------- 0 0.0 1.0 67 116
+ 1.10008 1 0 ack 40 ------- 0 1.0 0.0 67 153
- 1.10008 1 0 ack 40 ------- 0 1.0 0.0 67 153
r 1.10208 1 0 ack 40 ------- 0 1.0 0.0 66 151
+ 1.10208 0 1 tcp 1040 ------- 0 0.0 1.0 86 154
- 1.10672 0 1 tcp 1040 ------- 0 0.0 1.0 70 122
r 1.1084 0 1 tcp 1040 ------- 0 0.0 1.0 68 118
+ 1.1084 1 0 ack 40 ------- 0 1.0 0.0 68 155
- 1.1084 1 0 ack 40 ------- 0 1.0 0.0 68 155
r 1.1104 1 0 ack 40 ------- 0 1.0 0.0 67 153
+ 1.1104 0 1 tcp 1040 ------- 0 0.0 1.0 87 156
- 1.11504 0 1 tcp 1040 ------- 0 0.0 1.0 71 124
r 1.11672 0 1 tcp 1040 ------- 0 0.0 1.0 69 120
+ 1.11672 1 0 ack 40 ------- 0 1.0 0.0 69 157
- 1.11672 1 0 ack 40 ------- 0 1.0 0.0 69 157
r 1.11872 1 0 ack 40 ------- 0 1.0 0.0 68 155
+ 1.11872 0 1 tcp 1040 ------- 0 0.0 1.0 88 158
- 1.12336 0 1 tcp 1040 ------- 0 0.0 1.0 72 126
r 1.12504 0 1 tcp 1040 ------- 0 0.0 1.0 70 122
+ 1.12504 1 0 ack 40 ------- 0 1.0 0.0 70 159
- 1.12504 1 0 ack 40 ------- 0 1.0 0.0 70 159
r 1.12704 1 0 ack 40 ------- 0 1.0 0.0 69 157
+ 1.12704 0 1 tcp 1040 ------- 0 0.0 1.0 89 160
- 1.13168 0 1 tcp 1040 ------- 0 0.0 1.0 73 128
r 1.13336 0 1 tcp 1040 ------- 0 0.0 1.0 71 124
+ 1.13336 1 0 ack 40 ------- 0 1.0 0.0 71 161
- 1.13336 1 0 ack 40 ------- 0 1.0 0.0 71 161
r 1.13536 1 0 ack 40 ------- 0 1.0 0.0 70 159
+ 1.13536 0 1 tcp 1040 ------- 0 0.0 1.0 90 162
- 1.14 0 1 tcp 1040 ------- 0 0.0 1.0 74 130
r 1.14168 0 1 tcp 1040 ------- 0 0.0 1.0 72 126
+ 1.14168 1 0 ack 40 ------- 0 1.0 0.0 72 163
- 1.14168 1 0 ack 40 ------- 0 1.0 0.0 72 163
r 1.14368 1 0 ack 40 ------- 0 1.0 0.0 71 161
+ 1.14368 0 1 tcp 1040 ------- 0 0.0 1.0 91 164
- 1.14832 0 1 tcp 1040 ------- 0 0.0 1.0 75 132
r 1.15 0 1 tcp 1040 ------- 0 0.0 1.0 73 128
+ 1.15 1 0 ack 40 ------- 0 1.0 0.0 73 165
- 1.15 1 0 ack 40 ------- 0 1.0 0.0 73 165
r 1.152 1 0 ack 40 ------- 0 1.0 0.0 72 163
+ 1.152 0 1 tcp 1040 ------- 0 0.0 1.0 92 166
- 1.15664 0 1 tcp 1040 ------- 0 0.0 1.0 76 134
r 1.15832 0 1 tcp 1040 ------- 0 0.0 1.0 74 130
+ 1.15832 1 0 ack 40 ------- 0 1.0 0.0 74 167
- 1.15832 1 0 ack 40 ------- 0 1.0 0.0 74 167
r 1.16032 1 0 ack 40 ------- 0 1.0 0.0 73 165
+ 1.16032 0 1 tcp 1040 ------- 0 0.0 1.0 93 168
- 1.16496 0 1 tcp 1040 ------- 0 0.0 1.0 77 136
r 1.16664 0 1 tcp 1040 ------- 0 0.0 1.0 75 132
+ 1.16664 1 0 ack 40 ------- 0 1.0 0.0 75 169
- 1.16664 1 0 ack 40 ------- 0 1.0 0.0 75 169
r 1.16864 1 0 ack 40 ------- 0 1.0 0.0 74 167
+ 1.16864 0 1 tcp 1040 ------- 0 0.0 1.0 94 170
- 1.17328 0 1 tcp 1040 ------- 0 0.0 1.0 78 138
r 1.17496 0 1 tcp 1040 ------- 0 0.0 1.0 76 134
+ 1.17496 1 0 ack 40 ------- 0 1.0 0.0 76 171
- 1.17496 1 0 ack 40 ------- 0 1.0 0.0 76 171
r 1.17696 1 0 ack 40 ------- 0 1.0 0.0 75 169
+ 1.17696 0 1 tcp 1040 ------- 0 0.0 1.0 95 172
- 1.1816 0 1 tcp 1040 ------- 0 0.0 1.0 79 140
r 1.18328 0 1 tcp 1040 ------- 0 0.0 1.0 77 136
+ 1.18328 1 0 ack 40 ------- 0 1.0 0.0 77 173
- 1.18328 1 0 ack 40 ------- 0 1.0 0.0 77 173
r 1.18528 1 0 ack 40 ------- 0 1.0 0.0 76 171
+ 1.18528 0 1 tcp 1040 ------- 0 0.0 1.0 96 174
- 1.18992 0 1 tcp 1040 ------- 0 0.0 1.0 80 142
r 1.1916 0 1 tcp 1040 ------- 0 0.0 1.0 78 138
+ 1.1916 1 0 ack 40 ------- 0 1.0 0.0 78 175
- 1.1916 1 0 ack 40 ------- 0 1.0 0.0 78 175
r 1.1936 1 0 ack 40 ------- 0 1.0 0.0 77 173
+ 1.1936 0 1 tcp 1040 ------- 0 0.0 1.0 97 176
- 1.19824 0 1 tcp 1040 ------- 0 0.0 1.0 81 144
r 1.19992 0 1 tcp 1040 ------- 0 0.0 1.0 79 140
+ 1.19992 1 0 ack 40 ------- 0 1.0 0.0 79 177
- 1.19992 1 0 ack 40 ------- 0 1.0 0.0 79 177
r 1.20192 1 0 ack 40 ------- 0 1.0 0.0 78 175
+ 1.20192 0 1 tcp 1040 ------- 0 0.0 1.0 98 178
- 1.20656 0 1 tcp 1040 ------- 0 0.0 1.0 82 146
r 1.20824 0 1 tcp 1040 ------- 0 0.0 1.0 80 142
+ 1.20824 1 0 ack 40 ------- 0 1.0 0.0 80 179
- 1.20824 1 0 ack 40 ------- 0 1.0 0.0 80 179
r 1.21024 1 0 ack 40 ------- 0 1.0 0.0 79 177
+ 1.21024 0 1 tcp 1040 ------- 0 0.0 1.0 99 180
- 1.21488 0 1 tcp 1040 ------- 0 0.0 1.0 83 148
r 1.21656 0 1 tcp 1040 ------- 0 0.0 1.0 81 144
+ 1.21656 1 0 ack 40 ------- 0 1.0 0.0 81 181
- 1.21656 1 0 ack 40 ------- 0 1.0 0.0 81 181
r 1.21856 1 0 ack 40 ------- 0 1.0 0.0 80 179
+ 1.21856 0 1 tcp 1040 ------- 0 0.0 1.0 100 182
- 1.2232 0 1 tcp 1040 ------- 0 0.0 1.0 84 150
r 1.22488 0 1 tcp 1040 ------- 0 0.0 1.0 82 146
+ 1.22488 1 0 ack 40 ------- 0 1.0 0.0 82 183
- 1.22488 1 0 ack 40 ------- 0 1.0 0.0 82 183
r 1.22688 1 0 ack 40 ------- 0 1.0 0.0 81 181
+ 1.22688 0 1 tcp 1040 ------- 0 0.0 1.0 101 184
- 1.23152 0 1 tcp 1040 ------- 0 0.0 1.0 85 152
r 1.2332 0 1 tcp 1040 ------- 0 0.0 1.0 83 148
+ 1.2332 1 0 ack 40 ------- 0 1.0 0.0 83 185
- 1.2332 1 0 ack 40 ------- 0 1.0 0.0 83 185
r 1.2352 1 0 ack 40 ------- 0 1.0 0.0 82 183
+ 1.2352 0 1 tcp 1040 ------- 0 0.0 1.0 102 186
- 1.23984 0 1 tcp 1040 ------- 0 0.0 1.0 86 154
r 1.24152 0 1 tcp 1040 ------- 0 0.0 1.0 84 150
+ 1.24152 1 0 ack 40 ------- 0 1.0 0.0 84 187
- 1.24152 1 0 ack 40 ------- 0 1.0 0.0 84 187
r 1.24352 1 0 ack 40 ------- 0 1.0 0.0 83 185
+ 1.24352 0 1 tcp 1040 ------- 0 0.0 1.0 103 188
- 1.24816 0 1 tcp 1040 ------- 0 0.0 1.0 87 156
r 1.24984 0 1 tcp 1040 ------- 0 0.0 1.0 85 152
+ 1.24984 1 0 ack 40 ------- 0 1.0 0.0 85 189
- 1.24984 1 0 ack 40 ------- 0 1.0 0.0 85 189
r 1.25184 1 0 ack 40 ------- 0 1.0 0.0 84 187
+ 1.25184 0 1 tcp 1040 ------- 0 0.0 1.0 104 190
- 1.25648 0 1 tcp 1040 ------- 0 0.0 1.0 88 158
r 1.25816 0 1 tcp 1040 ------- 0 0.0 1.0 86 154
+ 1.25816 1 0 ack 40 ------- 0 1.0 0.0 86 191
- 1.25816 1 0 ack 40 ------- 0 1.0 0.0 86 191
r 1.26016 1 0 ack 40 ------- 0 1.0 0.0 85 189
+ 1.26016 0 1 tcp 1040 ------- 0 0.0 1.0 105 192
- 1.2648 0 1 tcp 1040 ------- 0 0.0 1.0 89 160
r 1.26648 0 1 tcp 1040 ------- 0 0.0 1.0 87 156
+ 1.26648 1 0 ack 40 ------- 0 1.0 0.0 87 193
- 1.26648 1 0 ack 40 ------- 0 1.0 0.0 87 193
r 1.26848 1 0 ack 40 ------- 0 1.0 0.0 86 191
+ 1.26848 0 1 tcp 1040 ------- 0 0.0 1.0 106 194
- 1.27312 0 1 tcp 1040 ------- 0 0.0 1.0 90 162
r 1.2748 0 1 tcp 1040 ------- 0 0.0 1.0 88 158
+ 1.2748 1 0 ack 40 ------- 0 1.0 0.0 88 195
- 1.2748 1 0 ack 40 ------- 0 1.0 0.0 88 195
r 1.2768 1 0 ack 40 ------- 0 1.0 0.0 87 193
+ 1.2768 0 1 tcp 1040 ------- 0 0.0 1.0 107 196
- 1.28144 0 1 tcp 1040 ------- 0 0.0 1.0 91 164
r 1.28312 0 1 tcp 1040 ------- 0 0.0 1.0 89 160
+ 1.28312 1 0 ack 40 ------- 0 1.0 0.0 89 197
- 1.28312 1 0 ack 40 ------- 0 1.0 0.0 89 197
r 1.28512 1 0 ack 40 ------- 0 1.0 0.0 88 195
+ 1.28512 0 1 tcp 1040 ------- 0 0.0 1.0 108 198
- 1.28976 0 1 tcp 1040 ------- 0 0.0 1.0 92 166
r 1.29144 0 1 tcp 1040 ------- 0 0.0 1.0 90 162
+ 1.29144 1 0 ack 40 ------- 0 1.0 0.0 90 199
- 1.29144 1 0 ack 40 ------- 0 1.0 0.0 90 199
r 1.29344 1 0 ack 40 ------- 0 1.0 0.0 89 197
+ 1.29344 0 1 tcp 1040 ------- 0 0.0 1.0 109 200
- 1.29808 0 1 tcp 1040 ------- 0 0.0 1.0 93 168
r 1.29976 0 1 tcp 1040 ------- 0 0.0 1.0 91 164
+ 1.29976 1 0 ack 40 ------- 0 1.0 0.0 91 201
- 1.29976 1 0 ack 40 ------- 0 1.0 0.0 91 201
r 1.30176 1 0 ack 40 ------- 0 1.0 0.0 90 199
+ 1.30176 0 1 tcp 1040 ------- 0 0.0 1.0 110 202
- 1.3064 0 1 tcp 1040 ------- 0 0.0 1.0 94 170
r 1.30808 0 1 tcp 1040 ------- 0 0.0 1.0 92 166
+ 1.30808 1 0 ack 40 ------- 0 1.0 0.0 92 203
- 1.30808 1 0 ack 40 ------- 0 1.0 0.0 92 203
r 1.31008 1 0 ack 40 ------- 0 1.0 0.0 91 201
+ 1.31008 0 1 tcp 1040 ------- 0 0.0 1.0 111 204
- 1.31472 0 1 tcp 1040 ------- 0 0.0 1.0 95 172
r 1.3164 0 1 tcp 1040 ------- 0 0.0 1.0 93 168
+ 1.3164 1 0 ack 40 ------- 0 1.0 0.0 93 205
- 1.3164 1 0 ack 40 ------- 0 1.0 0.0 93 205
r 1.3184 1 0 ack 40 ------- 0 1.0 0.0 92 203
+ 1.3184 0 1 tcp 1040 ------- 0 0.0 1.0 112 206
- 1.32304 0 1 tcp 1040 ------- 0 0.0 1.0 96 174
r 1.32472 0 1 tcp 1040 ------- 0 0.0 1.0 94 170
+ 1.32472 1 0 ack 40 ------- 0 1.0 0.0 94 207
- 1.32472 1 0 ack 40 ------- 0 1.0 0.0 94 207
r 1.32672 1 0 ack 40 ------- 0 1.0 0.0 93 205
+ 1.32672 0 1 tcp 1040 ------- 0 0.0 1.0 113 208
- 1.33136 0 1 tcp 1040 ------- 0 0.0 1.0 97 176
r 1.33304 0 1 tcp 1040 ------- 0 0.0 1.0 95 172
+ 1.33304 1 0 ack 40 ------- 0 1.0 0.0 95 209
- 1.33304 1 0 ack 40 ------- 0 1.0 0.0 95 209
r 1.33504 1 0 ack 40 ------- 0 1.0 0.0 94 207
+ 1.33504 0 1 tcp 1040 ------- 0 0.0 1.0 114 210
- 1.33968 0 1 tcp 1040 ------- 0 0.0 1.0 98 178
r 1.34136 0 1 tcp 1040 ------- 0 0.0 1.0 96 174
+ 1.34136 1 0 ack 40 ------- 0 1.0 0.0 96 211
- 1.34136 1 0 ack 40 ------- 0 1.0 0.0 96 211
r 1.34336 1 0 ack 40 ------- 0 1.0 0.0 95 209
+ 1.34336 0 1 tcp 1040 ------- 0 0.0 1.0 115 212
- 1.348 0 1 tcp 1040 ------- 0 0.0 1.0 99 180
r 1.34968 0 1 tcp 1040 ------- 0 0.0 1.0 97 176
+ 1.34968 1 0 ack 40 ------- 0 1.0 0.0 97 213
- 1.34968 1 0 ack 40 ------- 0 1.0 0.0 97 213
r 1.35168 1 0 ack 40 ------- 0 1.0 0.0 96 211
+ 1.35168 0 1 tcp 1040 ------- 0 0.0 1.0 116 214
- 1.35632 0 1 tcp 1040 ------- 0 0.0 1.0 100 182
r 1.358 0 1 tcp 1040 ------- 0 0.0 1.0 98 178
+ 1.358 1 0 ack 40 ------- 0 1.0 0.0 98 215
- 1.358 1 0 ack 40 ------- 0 1.0 0.0 98 215
r 1.36 1 0 ack 40 ------- 0 1.0 0.0 97 213
+ 1.36 0 1 tcp 1040 ------- 0 0.0 1.0 117 216
- 1.36464 0 1 tcp 1040 ------- 0 0.0 1.0 101 184
r 1.36632 0 1 tcp 1040 ------- 0 0.0 1.0 99 180
+ 1.36632 1 0 ack 40 ------- 0 1.0 0.0 99 217
- 1.36632 1 0 ack 40 ------- 0 1.0 0.0 99 217
r 1.36832 1 0 ack 40 ------- 0 1.0 0.0 98 215
+ 1.36832 0 1 tcp 1040 ------- 0 0.0 1.0 118 218
- 1.37296 0 1 tcp 1040 ------- 0 0.0 1.0 102 186
r 1.37464 0 1 tcp 1040 ------- 0 0.0 1.0 100 182
+ 1.37464 1 0 ack 40 ------- 0 1.0 0.0 100 219
- 1.37464 1 0 ack 40 ------- 0 1.0 0.0 100 219
r 1.37664 1 0 ack 40 ------- 0 1.0 0.0 99 217
+ 1.37664 0 1 tcp 1040 ------- 0 0.0 1.0 119 220
- 1.38128 0 1 tcp 1040 ------- 0 0.0 1.0 103 188
r 1.38296 0 1 tcp 1040 ------- 0 0.0 1.0 101 184
+ 1.38296 1 0 ack 40 ------- 0 1.0 0.0 101 221
- 1.38296 1 0 ack 40 ------- 0 1.0 0.0 101 221
r 1.38496 1 0 ack 40 ------- 0 1.0 0.0 100 219
+ 1.38496 0 1 tcp 1040 ------- 0 0.0 1.0 120 222
- 1.3896 0 1 tcp 1040 ------- 0 0.0 1.0 104 190
r 1.39128 0 1 tcp 1040 ------- 0 0.0 1.0 102 186
+ 1.39128 1 0 ack 40 ------- 0 1.0 0.0 102 223
- 1.39128 1 0 ack 40 ------- 0 1.0 0.0 102 223
r 1.39328 1 0 ack 40 ------- 0 1.0 0.0 101 221
+ 1.39328 0 1 tcp 1040 ------- 0 0.0 1.0 121 224
- 1.39792 0 1 tcp 1040 ------- 0 0.0 1.0 105 192
r 1.3996 0 1 tcp 1040 ------- 0 0.0 1.0 103 188
+ 1.3996 1 0 ack 40 ------- 0 1.0 0.0 103 225
- 1.3996 1 0 ack 40 ------- 0 1.0 0.0 103 225
r 1.4016 1 0 ack 40 ------- 0 1.0 0.0 102 223
+ 1.4016 0 1 tcp 1040 ------- 0 0.0 1.0 122 226
- 1.40624 0 1 tcp 1040 ------- 0 0.0 1.0 106 194
r 1.40792 0 1 tcp 1040 ------- 0 0.0 1.0 104 190
+ 1.40792 1 0 ack 40 ------- 0 1.0 0.0 104 227
- 1.40792 1 0 ack 40 ------- 0 1.0 0.0 104 227